 Entering Gaussian System, Link 0=g03
 Input=irc.com
 Output=irc.log
 Initial command:
 /usr/g03/l1.exe /scratch/Gau-23573.inp -scrdir=/scratch/
 Entering Link 1 = /usr/g03/l1.exe PID=     23574.
  
 Copyright (c) 1988,1990,1992,1993,1995,1998,2003,2004, Gaussian, Inc.
                  All Rights Reserved.
  
 This is the Gaussian(R) 03 program.  It is based on the
 the Gaussian(R) 98 system (copyright 1998, Gaussian, Inc.),
 the Gaussian(R) 94 system (copyright 1995, Gaussian, Inc.),
 the Gaussian 92(TM) system (copyright 1992, Gaussian, Inc.),
 the Gaussian 90(TM) system (copyright 1990, Gaussian, Inc.),
 the Gaussian 88(TM) system (copyright 1988, Gaussian, Inc.),
 the Gaussian 86(TM) system (copyright 1986, Carnegie Mellon
 University), and the Gaussian 82(TM) system (copyright 1983,
 Carnegie Mellon University). Gaussian is a federally registered
 trademark of Gaussian, Inc.
  
 This software contains proprietary and confidential information,
 including trade secrets, belonging to Gaussian, Inc.
  
 This software is provided under written license and may be
 used, copied, transmitted, or stored only in accord with that
 written license.
  
 The following legend is applicable only to US Government
 contracts under FAR:
  
                    RESTRICTED RIGHTS LEGEND
  
 Use, reproduction and disclosure by the US Government is
 subject to restrictions as set forth in subparagraphs (a)
 and (c) of the Commercial Computer Software - Restricted
 Rights clause in FAR 52.227-19.
  
 Gaussian, Inc.
 340 Quinnipiac St., Bldg. 40, Wallingford CT 06492
  
  
 ---------------------------------------------------------------
 Warning -- This program may not be used in any manner that
 competes with the business of Gaussian, Inc. or will provide
 assistance to any competitor of Gaussian, Inc.  The licensee
 of this program is prohibited from giving any competitor of
 Gaussian, Inc. access to this program.  By using this program,
 the user acknowledges that Gaussian, Inc. is engaged in the
 business of creating and licensing software in the field of
 computational chemistry and represents and warrants to the
 licensee that it is not a competitor of Gaussian, Inc. and that
 it will not use this program in any manner prohibited above.
 ---------------------------------------------------------------
  

 Cite this work as:
 Gaussian 03, Revision D.02,
 M. J. Frisch, G. W. Trucks, H. B. Schlegel, G. E. Scuseria, 
 M. A. Robb, J. R. Cheeseman, J. A. Montgomery, Jr., T. Vreven, 
 K. N. Kudin, J. C. Burant, J. M. Millam, S. S. Iyengar, J. Tomasi, 
 V. Barone, B. Mennucci, M. Cossi, G. Scalmani, N. Rega, 
 G. A. Petersson, H. Nakatsuji, M. Hada, M. Ehara, K. Toyota, 
 R. Fukuda, J. Hasegawa, M. Ishida, T. Nakajima, Y. Honda, O. Kitao, 
 H. Nakai, M. Klene, X. Li, J. E. Knox, H. P. Hratchian, J. B. Cross, 
 V. Bakken, C. Adamo, J. Jaramillo, R. Gomperts, R. E. Stratmann, 
 O. Yazyev, A. J. Austin, R. Cammi, C. Pomelli, J. W. Ochterski, 
 P. Y. Ayala, K. Morokuma, G. A. Voth, P. Salvador, J. J. Dannenberg, 
 V. G. Zakrzewski, S. Dapprich, A. D. Daniels, M. C. Strain, 
 O. Farkas, D. K. Malick, A. D. Rabuck, K. Raghavachari, 
 J. B. Foresman, J. V. Ortiz, Q. Cui, A. G. Baboul, S. Clifford, 
 J. Cioslowski, B. B. Stefanov, G. Liu, A. Liashenko, P. Piskorz, 
 I. Komaromi, R. L. Martin, D. J. Fox, T. Keith, M. A. Al-Laham, 
 C. Y. Peng, A. Nanayakkara, M. Challacombe, P. M. W. Gill, 
 B. Johnson, W. Chen, M. W. Wong, C. Gonzalez, and J. A. Pople, 
 Gaussian, Inc., Wallingford CT, 2004.
 
 ******************************************
 Gaussian 03:  AM64L-G03RevD.02  1-Mar-2006
                30-Sep-2008 
 ******************************************
 %chk=irc.chk
 % mem=200mw
 % nproc=4
 Will use up to    4 processors via shared memory.
 ----------------------------------------------------------------------
 # UB3LYP/gen pseudo=read IRC=(Calcfc,maxpoints=15,stepsize=3) test SCF
 =(maxcycle=500) Nosymm
 ----------------------------------------------------------------------
 1/10=4,14=-1,18=40,26=3,29=120000,38=1,39=3,42=15/1,15;
 2/15=1,17=6,18=5,29=3,40=1/2;
 3/5=7,11=2,16=1,17=8,25=1,30=1,74=-5/1,2,3;
 4/7=2/1;
 5/5=2,7=500,38=5/2;
 8/6=4,10=90,11=11/1;
 11/6=1,8=1,9=11,15=111,16=1,31=1/1,2,10;
 10/6=1,7=6,31=1/2;
 6/7=2,8=2,9=2,10=2,28=1/1;
 7/10=1,18=20,25=1,30=1/1,2,3,16;
 1/10=4,14=-1,39=3,42=15/15(3);
 2/15=1,29=3/2;
 6/7=2,8=2,9=2,10=2,19=2,28=1/1;
 99//99;
 2/15=1,29=3/2;
 3/5=7,6=1,11=2,16=1,17=8,25=1,30=1,74=-5,82=7/1,2,3;
 4/5=5,7=2,16=3/1;
 5/5=2,7=500,38=5/2;
 7/30=1/1,2,3,16;
 1/14=-1,39=3,42=15/15(-5);
 2/15=1,29=3/2;
 6/7=2,8=2,9=2,10=2,19=2,28=1/1;
 99/9=1/99;
 ---
 IRC
 ---
 Symbolic Z-matrix:
 Charge =  0 Multiplicity = 2
 6                    0     0.00152   0.00145  -0.00174 
 1                    0     0.00555   0.00218   1.09091 
 1                    0     0.92181  -0.00058  -0.56705 
 1                    0    -0.925    -0.08665  -0.54505 
 8                    0    -0.00899  -1.81154   0.34478 
 1                    0     0.87269  -2.00759   0.747 
 29                   0    -1.19772   2.57716   1.28516 
 8                    0     0.0161    1.76071   0.22037 
 
 IRC-IRC-IRC-IRC-IRC-IRC-IRC-IRC-IRC-IRC-IRC-IRC-IRC-IRC-IRC-IRC-IRC-IRC
 Berny reaction coordinate optimization.
 Number of steps in this run=   0 maximum allowed number of steps= 100.
 IRC-IRC-IRC-IRC-IRC-IRC-IRC-IRC-IRC-IRC-IRC-IRC-IRC-IRC-IRC-IRC-IRC-IRC
 ------------------------------------------------------------------------
                         Z-MATRIX (ANGSTROMS AND DEGREES)
 CD Cent Atom  N1     Length/X     N2    Alpha/Y     N3     Beta/Z      J
 ------------------------------------------------------------------------
   1   1  C     0   0.001523          0.001449         -0.001744
   2   2  H     0   0.005547          0.002183          1.090911
   3   3  H     0   0.921811         -0.000580         -0.567054
   4   4  H     0  -0.925002         -0.086654         -0.545052
   5   5  O     0  -0.008993         -1.811537          0.344783
   6   6  H     0   0.872691         -2.007593          0.747000
   7   7  Cu    0  -1.197721          2.577164          1.285155
   8   8  O     0   0.016100          1.760707          0.220373
 ------------------------------------------------------------------------
                         Z-Matrix orientation:                         
 ---------------------------------------------------------------------
 Center     Atomic     Atomic              Coordinates (Angstroms)
 Number     Number      Type              X           Y           Z
 ---------------------------------------------------------------------
    1          6             0        0.001523    0.001449   -0.001744
    2          1             0        0.005547    0.002183    1.090911
    3          1             0        0.921811   -0.000580   -0.567054
    4          1             0       -0.925002   -0.086654   -0.545052
    5          8             0       -0.008993   -1.811537    0.344783
    6          1             0        0.872691   -2.007593    0.747000
    7         29             0       -1.197721    2.577164    1.285155
    8          8             0        0.016100    1.760707    0.220373
 ---------------------------------------------------------------------
                    Distance matrix (angstroms):
                    1          2          3          4          5
     1  C    0.000000
     2  H    1.092663   0.000000
     3  H    1.080051   1.894306   0.000000
     4  H    1.077680   1.884194   1.848949   0.000000
     5  O    1.845836   1.961249   2.231011   2.146183   0.000000
     6  H    2.314260   2.215720   2.399427   2.931059   0.988728
     7  Cu   3.119071   2.848879   3.816786   3.243449   4.643067
     8  O    1.773284   1.962232   2.131311   2.210043   3.574498
                    6          7          8
     6  H    0.000000
     7  Cu   5.059270   0.000000
     8  O    3.900150   1.809344   0.000000
                           Interatomic angles:
       H2-C1-H3=121.3504       H2-C1-H4=120.4884       H3-C1-H4=117.9394
       H2-H4-H3= 60.9768       H2-C1-O5= 79.2192       H3-C1-O5= 95.8124
       H3-H2-O5= 70.6867       H4-C1-O5= 90.5415       H4-H2-O5= 67.8162
       H3-H4-O5= 67.4204       C1-H2-H6= 81.1191       H3-C1-H6= 81.1968
       H3-H2-H6= 70.9453       H4-C1-H6=114.5681       H4-H2-H6= 90.9024
       H4-H3-H6= 86.2212       C1-O5-H6=105.4295       H2-O5-H6= 91.2607
       H3-O5-H6= 87.4311       H4-O5-H6=135.1237      C1-H2-Cu7= 93.8551
      H3-H2-Cu7=105.3842      H4-H2-Cu7= 83.8704      O5-H2-Cu7=149.1682
      H6-H2-Cu7=174.7014       H2-C1-O8= 82.7642       H3-C1-O8= 93.4639
       H3-H2-O8= 67.071        H4-C1-O8= 98.7035       H4-H2-O8= 70.1055
       H4-H3-O8= 67.0212       O5-C1-O8=161.9832       O5-H2-O8=131.3024
       O5-H3-O8=110.0291       O5-H4-O8=110.271        H6-C1-O8=144.848 
       H6-H2-O8=137.8955       H6-H3-O8=118.6986       H6-H4-O8= 97.6996
      C1-O8-Cu7=121.0559      H2-O8-Cu7= 98.031       H3-O8-Cu7=151.0937
      H4-O8-Cu7=107.1777
 Symmetry turned off by external request.
 Stoichiometry    CH4CuO2(2)
 Framework group  C1[X(CH4CuO2)]
 Deg. of freedom    18
 Full point group                 C1
 Rotational constants (GHZ):     17.3758867      1.4549303      1.3647753
 General basis read from cards:  (5D, 7F)
 ===================================================================================================================================
 Pseudopotential Parameters 
 ===================================================================================================================================
  Center     Atomic      Valence      Angular      Power                                                       Coordinates
  Number     Number     Electrons     Momentum     of R      Exponent        Coefficient                X           Y           Z
 ===================================================================================================================================
    1          6                                                                                    0.002878  0.002738 -0.003296
                                   No pseudopotential on this center.
    2          1                                                                                    0.010482  0.004125  2.061523
                                   No pseudopotential on this center.
    3          1                                                                                    1.741970 -0.001096 -1.071577
                                   No pseudopotential on this center.
    4          1                                                                                   -1.748000 -0.163752 -1.029999
                                   No pseudopotential on this center.
    5          8                                                                                   -0.016994 -3.423309  0.651545
                                   No pseudopotential on this center.
    6          1                                                                                    1.649147 -3.793801  1.411625
                                   No pseudopotential on this center.
    7         29           19                                                                      -2.263365  4.870134  2.428591
                                      D and up 
                                                     1      511.9951763      -10.00000000
                                                     2       93.2801074      -72.55482820
                                                     2       23.2206669      -12.74502310
                                      S - D
                                                     0      173.1180854        3.00000000
                                                     1      185.2419886       23.83518250
                                                     2       73.1517847      473.89304880
                                                     2       14.6884157      157.63458230
                                      P - D
                                                     0      100.7191369        5.00000000
                                                     1      130.8345665        6.49909360
                                                     2       53.8683720      351.46053950
                                                     2       14.0989469       85.50160360
    8          8                                                                                    0.030425  3.327254  0.416445
                                   No pseudopotential on this center.
 ===================================================================================================================================
 Integral buffers will be    131072 words long.
 Raffenetti 2 integral format.
 Two-electron integral symmetry is turned off.
    62 basis functions,   141 primitive gaussians,    65 cartesian basis functions
    23 alpha electrons       22 beta electrons
       nuclear repulsion energy       159.0354715708 Hartrees.
 NAtoms=    8 NActive=    8 NUniq=    8 SFac= 7.50D-01 NAtFMM=   80 NAOKFM=F Big=F
 One-electron integrals computed using PRISM.
   1 Symmetry operations used in ECPInt.
 ECPInt:  NShTT=     351 NPrTT=    2229 LenC2=     348 LenP2D=    1706.
 LDataN:  DoStor=F MaxTD1= 4 Len=   56
 LDataN:  DoStor=T MaxTD1= 4 Len=   56
 NBasis=    62 RedAO= T  NBF=    62
 NBsUse=    62 1.00D-06 NBFU=    62
 Harris functional with IExCor=  402 diagonalized for initial guess.
 ExpMin= 2.40D-02 ExpMax= 5.48D+03 ExpMxC= 8.25D+02 IAcc=3 IRadAn=         5 AccDes= 0.00D+00
 HarFok:  IExCor= 402 AccDes= 0.00D+00 IRadAn=         5 IDoV=1
 ScaDFX=  1.000000  1.000000  1.000000  1.000000
 <S**2> of initial guess= 0.7500
 Requested convergence on RMS density matrix=1.00D-08 within 500 cycles.
 Requested convergence on MAX density matrix=1.00D-06.
 Requested convergence on             energy=1.00D-06.
 No special actions if energy rises.
 Keep R1 and R2 integrals in memory in canonical form, NReq=     6648884.
 EnCoef did     3 forward-backward iterations
 EnCoef did   100 forward-backward iterations
 EnCoef did     3 forward-backward iterations
 EnCoef did     3 forward-backward iterations
 EnCoef did     2 forward-backward iterations
 Restarting incremental Fock formation.
 SCF Done:  E(UB+HF-LYP) =  -386.903032825     A.U. after   23 cycles
             Convg  =    0.7567D-08             -V/T =  2.2191
             S**2   =   0.7968
 Annihilation of the first spin contaminant:
 S**2 before annihilation     0.7968,   after     0.7508
 Range of M.O.s used for correlation:     1    62
 NBasis=    62 NAE=    23 NBE=    22 NFC=     0 NFV=     0
 NROrb=     62 NOA=    23 NOB=    22 NVA=    39 NVB=    40
   1 Symmetry operations used in ECPInt.
 ECPInt:  NShTT=     351 NPrTT=    2229 LenC2=     348 LenP2D=    1706.
 LDataN:  DoStor=F MaxTD1= 5 Len=  102
 LDataN:  DoStor=T MaxTD1= 5 Len=  102
 Symmetrizing basis deriv contribution to polar:
 IMax=3 JMax=2 DiffMx= 0.00D+00
 G2DrvN: will do    9 centers at a time, making    1 passes doing MaxLOS=2.
 FoFDir/FoFCou used for L=0 through L=2.
 DoAtom=TTTTTTTT
          Differentiating once with respect to electric field.
                with respect to dipole field.
          Differentiating once with respect to nuclear coordinates.
          Store integrals in memory, NReq=     5425583.
          There are  27 degrees of freedom in the 1st order CPHF.
    24 vectors were produced by pass  0.
 AX will form  24 AO Fock derivatives at one time.
    24 vectors were produced by pass  1.
    24 vectors were produced by pass  2.
    24 vectors were produced by pass  3.
    24 vectors were produced by pass  4.
    11 vectors were produced by pass  5.
     3 vectors were produced by pass  6.
     2 vectors were produced by pass  7.
 Inv2:  IOpt= 1 Iter= 1 AM= 1.85D-15 Conv= 1.00D-12.
 Inverted reduced A of dimension  136 with in-core refinement.
 Isotropic polarizability for W=    0.000000       77.26 Bohr**3.
 End of Minotr Frequency-dependent properties file   721 does not exist.

 **********************************************************************

            Population analysis using the SCF density.

 **********************************************************************

 Alpha  occ. eigenvalues --  -19.13978 -19.12342 -10.22464  -4.32681  -2.84087
 Alpha  occ. eigenvalues --   -2.83308  -2.82905  -0.94907  -0.90703  -0.67066
 Alpha  occ. eigenvalues --   -0.45403  -0.44845  -0.40610  -0.36838  -0.34335
 Alpha  occ. eigenvalues --   -0.32542  -0.30457  -0.30239  -0.30235  -0.26836
 Alpha  occ. eigenvalues --   -0.25299  -0.25066  -0.24576
 Alpha virt. eigenvalues --   -0.11519  -0.01049  -0.00453   0.02193   0.07411
 Alpha virt. eigenvalues --    0.08993   0.09362   0.12717   0.15571   0.17527
 Alpha virt. eigenvalues --    0.18824   0.19190   0.49880   0.57358   0.57978
 Alpha virt. eigenvalues --    0.68911   0.77825   0.78439   0.79169   0.80011
 Alpha virt. eigenvalues --    0.86223   0.89175   0.89840   0.91943   0.97605
 Alpha virt. eigenvalues --    0.99036   1.04477   1.08821   1.10890   1.17526
 Alpha virt. eigenvalues --    1.21851   1.44247   1.56967   1.59725   1.79836
 Alpha virt. eigenvalues --    1.93583   2.16645   2.21649   2.25672
  Beta  occ. eigenvalues --  -19.12381 -19.11094 -10.22554  -4.32309  -2.83481
  Beta  occ. eigenvalues --   -2.82878  -2.82727  -0.91840  -0.86545  -0.66181
  Beta  occ. eigenvalues --   -0.44370  -0.43910  -0.39109  -0.35017  -0.32134
  Beta  occ. eigenvalues --   -0.31282  -0.30089  -0.30088  -0.28155  -0.24057
  Beta  occ. eigenvalues --   -0.23586  -0.22567
  Beta virt. eigenvalues --   -0.11983  -0.11069  -0.01011  -0.00459   0.02419
  Beta virt. eigenvalues --    0.08360   0.08933   0.09472   0.13054   0.16399
  Beta virt. eigenvalues --    0.17583   0.19093   0.19469   0.50385   0.57607
  Beta virt. eigenvalues --    0.58125   0.68753   0.77803   0.78365   0.79587
  Beta virt. eigenvalues --    0.80679   0.86608   0.89507   0.91098   0.93053
  Beta virt. eigenvalues --    0.98710   0.99742   1.05643   1.10517   1.12684
  Beta virt. eigenvalues --    1.18566   1.23519   1.45185   1.57726   1.60924
  Beta virt. eigenvalues --    1.79286   1.94098   2.16311   2.22078   2.25867
          Condensed to atoms (all electrons):
              1          2          3          4          5          6
     1  C    5.013332   0.357897   0.379077   0.381539   0.077001  -0.018164
     2  H    0.357897   0.493242  -0.020609  -0.021806  -0.017862   0.002905
     3  H    0.379077  -0.020609   0.501538  -0.023995  -0.019178  -0.000839
     4  H    0.381539  -0.021806  -0.023995   0.490578  -0.021885   0.003019
     5  O    0.077001  -0.017862  -0.019178  -0.021885   8.368560   0.184221
     6  H   -0.018164   0.002905  -0.000839   0.003019   0.184221   0.504199
     7  Cu  -0.015267   0.009356   0.005337  -0.000958  -0.000343  -0.000604
     8  O    0.074666  -0.029878  -0.026097  -0.024830   0.001432  -0.000390
              7          8
     1  C   -0.015267   0.074666
     2  H    0.009356  -0.029878
     3  H    0.005337  -0.026097
     4  H   -0.000958  -0.024830
     5  O   -0.000343   0.001432
     6  H   -0.000604  -0.000390
     7  Cu  18.426122   0.221222
     8  O    0.221222   8.292497
 Mulliken atomic charges:
              1
     1  C   -0.250080
     2  H    0.226754
     3  H    0.204766
     4  H    0.218339
     5  O   -0.571945
     6  H    0.325653
     7  Cu   0.355134
     8  O   -0.508622
 Sum of Mulliken charges=   0.00000
 Atomic charges with hydrogens summed into heavy atoms:
              1
     1  C    0.399779
     2  H    0.000000
     3  H    0.000000
     4  H    0.000000
     5  O   -0.246292
     6  H    0.000000
     7  Cu   0.355134
     8  O   -0.508622
 Sum of Mulliken charges=   0.00000
          Atomic-Atomic Spin Densities.
              1          2          3          4          5          6
     1  C   -0.077789   0.043193   0.004746   0.003797  -0.037742   0.001313
     2  H    0.043193   0.080980   0.001309   0.000708  -0.029385   0.001465
     3  H    0.004746   0.001309   0.001385   0.000264  -0.002097   0.000295
     4  H    0.003797   0.000708   0.000264   0.000882  -0.001071  -0.000041
     5  O   -0.037742  -0.029385  -0.002097  -0.001071   0.546597  -0.002298
     6  H    0.001313   0.001465   0.000295  -0.000041  -0.002298  -0.016919
     7  Cu   0.000983   0.001402  -0.000175   0.000752  -0.000969   0.000285
     8  O   -0.029417  -0.028785  -0.001220  -0.000909   0.002157  -0.000106
              7          8
     1  C    0.000983  -0.029417
     2  H    0.001402  -0.028785
     3  H   -0.000175  -0.001220
     4  H    0.000752  -0.000909
     5  O   -0.000969   0.002157
     6  H    0.000285  -0.000106
     7  Cu  -0.048203  -0.018918
     8  O   -0.018918   0.693996
 Mulliken atomic spin densities:
              1
     1  C   -0.090916
     2  H    0.070887
     3  H    0.004507
     4  H    0.004383
     5  O    0.475191
     6  H   -0.016007
     7  Cu  -0.064842
     8  O    0.616798
 Sum of Mulliken spin densities=   1.00000
 APT atomic charges:
              1
     1  C   -0.336921
     2  H    0.249759
     3  H    0.038901
     4  H    0.058305
     5  O   -0.307343
     6  H    0.209351
     7  Cu   0.510837
     8  O   -0.422889
 Sum of APT charges=   0.00000
 APT Atomic charges with hydrogens summed into heavy atoms:
              1
     1  C    0.010044
     2  H    0.000000
     3  H    0.000000
     4  H    0.000000
     5  O   -0.097992
     6  H    0.000000
     7  Cu   0.510837
     8  O   -0.422889
 Sum of APT charges=   0.00000
 Electronic spatial extent (au):  <R**2>=   937.4048
 Charge=     0.0000 electrons
 Dipole moment (field-independent basis, Debye):
    X=    -1.1587    Y=     2.8239    Z=     2.4736  Tot=     3.9288
 Quadrupole moment (field-independent basis, Debye-Ang):
   XX=   -25.6935   YY=   -26.8542   ZZ=   -26.2314
   XY=   -11.3025   XZ=    -3.1551   YZ=     6.3259
 Traceless Quadrupole moment (field-independent basis, Debye-Ang):
   XX=     0.5662   YY=    -0.5945   ZZ=     0.0283
   XY=   -11.3025   XZ=    -3.1551   YZ=     6.3259
 Octapole moment (field-independent basis, Debye-Ang**2):
  XXX=    36.7314  YYY=   -52.4597  ZZZ=   -50.2729  XYY=    -2.9529
  XXY=   -20.9089  XXZ=   -12.8298  XZZ=     7.9813  YZZ=   -18.5268
  YYZ=     4.0449  XYZ=   -15.6608
 Hexadecapole moment (field-independent basis, Debye-Ang**3):
 XXXX=  -132.5665 YYYY=  -625.3225 ZZZZ=  -154.4626 XXXY=    91.9357
 XXXZ=    44.4103 YYYX=    28.3619 YYYZ=   -49.5060 ZZZX=    43.5574
 ZZZY=   -93.8361 XXYY=  -108.6800 XXZZ=   -39.7673 YYZZ=  -113.6588
 XXYZ=   -19.7837 YYXZ=   -14.5376 ZZXY=    15.1253
 N-N= 1.590354715708D+02 E-N=-1.248844058948D+03  KE= 3.173646857628D+02
  Exact polarizability:  52.121 -31.146 134.438  -8.528  18.877  45.233
 Approx polarizability:  69.968 -27.829 206.685 -19.432  21.149  61.762
                          Isotropic Fermi Contact Couplings
        Atom                 a.u.       MegaHertz       Gauss      10(-4) cm-1
     1  C(13)              0.03626      40.76615      14.54638      13.59812
     2  H(1)               0.04909     219.41653      78.29327      73.18948
     3  H(1)               0.00163       7.30626       2.60706       2.43711
     4  H(1)               0.00157       6.99946       2.49758       2.33477
     5  O(17)              0.06518     -39.51452     -14.09976     -13.18062
     6  H(1)              -0.00797     -35.64573     -12.71928     -11.89013
     7  Cu(63)            -0.00003      -0.03218      -0.01148      -0.01073
     8  O(17)              0.06141     -37.22602     -13.28317     -12.41726
 --------------------------------------------------------
       Center         ----  Spin Dipole Couplings  ----
                      3XX-RR        3YY-RR        3ZZ-RR
 --------------------------------------------------------
     1   Atom        0.017360     -0.122534      0.105175
     2   Atom       -0.018579      0.009055      0.009525
     3   Atom       -0.011817      0.011702      0.000115
     4   Atom       -0.012133      0.010875      0.001258
     5   Atom       -0.881853      1.575939     -0.694086
     6   Atom        0.055547     -0.020327     -0.035220
     7   Atom       -0.037203      0.066671     -0.029468
     8   Atom       -0.908641      0.938205     -0.029564
 --------------------------------------------------------
                        XY            XZ            YZ
 --------------------------------------------------------
     1   Atom        0.001816     -0.004231     -0.002968
     2   Atom        0.001027      0.001011     -0.002868
     3   Atom       -0.001653     -0.004990      0.001185
     4   Atom        0.001512      0.005416      0.000371
     5   Atom        0.195991      0.076022      0.765251
     6   Atom       -0.025972      0.051104     -0.003093
     7   Atom       -0.137112     -0.195685      0.011408
     8   Atom        0.359108     -0.448339     -1.307302
 --------------------------------------------------------


 ---------------------------------------------------------------------------------
              Anisotropic Spin Dipole Couplings in Principal Axis System
 ---------------------------------------------------------------------------------

       Atom             a.u.   MegaHertz   Gauss  10(-4) cm-1        Axes

              Baa    -0.1226   -16.451    -5.870    -5.488 -0.0126  0.9998  0.0128
     1 C(13)  Bbb     0.0172     2.305     0.822     0.769  0.9988  0.0120  0.0484
              Bcc     0.1054    14.146     5.048     4.719 -0.0483 -0.0134  0.9987
 
              Baa    -0.0187    -9.957    -3.553    -3.321  0.9984 -0.0411 -0.0400
     2 H(1)   Bbb     0.0065     3.465     1.237     1.156  0.0573  0.7345  0.6761
              Bcc     0.0122     6.492     2.316     2.165  0.0016 -0.6773  0.7357
 
              Baa    -0.0137    -7.300    -2.605    -2.435  0.9406  0.0455  0.3363
     3 H(1)   Bbb     0.0016     0.880     0.314     0.294 -0.3251 -0.1633  0.9315
              Bcc     0.0120     6.420     2.291     2.141 -0.0973  0.9855  0.1388
 
              Baa    -0.0141    -7.532    -2.688    -2.512  0.9423 -0.0521 -0.3307
     4 H(1)   Bbb     0.0031     1.644     0.587     0.549  0.3239 -0.1076  0.9400
              Bcc     0.0110     5.888     2.101     1.964  0.0846  0.9928  0.0845
 
              Baa    -0.9345    67.617    24.127    22.555 -0.3881 -0.2409  0.8896
     5 O(17)  Bbb    -0.8916    64.515    23.020    21.520  0.9184 -0.1819  0.3514
              Bcc     1.8260  -132.132   -47.148   -44.074  0.0772  0.9534  0.2918
 
              Baa    -0.0599   -31.974   -11.409   -10.665 -0.4355 -0.2174  0.8735
     6 H(1)   Bbb    -0.0246   -13.099    -4.674    -4.369  0.1190  0.9480  0.2952
              Bcc     0.0845    45.073    16.083    15.035  0.8923 -0.2325  0.3870
 
              Baa    -0.2563   -36.284   -12.947   -12.103  0.7320  0.2890  0.6170
     7 Cu(63) Bbb     0.0218     3.084     1.100     1.029  0.2027  0.7722 -0.6022
              Bcc     0.2345    33.201    11.847    11.075  0.6505 -0.5659 -0.5067
 
              Baa    -1.1415    82.595    29.472    27.551  0.7704  0.2386  0.5912
     8 O(17)  Bbb    -0.8132    58.841    20.996    19.627  0.6087 -0.5510 -0.5709
              Bcc     1.9546  -141.436   -50.468   -47.178  0.1895  0.7997 -0.5697
 

 ---------------------------------------------------------------------------------

   1 Symmetry operations used in ECPInt.
 ECPInt:  NShTT=     351 NPrTT=    2229 LenC2=     352 LenP2D=    2159.
 LDataN:  DoStor=F MaxTD1= 6 Len=  172
 LDataN:  DoStor=T MaxTD1= 6 Len=  172
 -------------------------------------------------------------------
 Center     Atomic                   Forces (Hartrees/Bohr)
 Number     Number              X              Y              Z
 -------------------------------------------------------------------
    1          6           0.000010190    0.000047179   -0.000008920
    2          1           0.000000328   -0.000020864    0.000028231
    3          1          -0.000000485    0.000027320    0.000006493
    4          1           0.000005293   -0.000020936    0.000007632
    5          8           0.000025205   -0.000069679   -0.000038881
    6          1           0.000029568   -0.000035309   -0.000008193
    7         29          -0.000060626   -0.000004508    0.000063469
    8          8          -0.000009474    0.000076796   -0.000049832
 -------------------------------------------------------------------
 Cartesian Forces:  Max     0.000076796 RMS     0.000035555
 ------------------------------------------------------------------------
           Internal Coordinate Forces (Hartree/Bohr or radian)
 Cent Atom N1     Length/X     N2     Alpha/Y      N3      Beta/Z       J
 ------------------------------------------------------------------------
   1  C         0.000010(   1)      0.000047(   9)     -0.000009(  17)
   2  H         0.000000(   2)     -0.000021(  10)      0.000028(  18)
   3  H         0.000000(   3)      0.000027(  11)      0.000006(  19)
   4  H         0.000005(   4)     -0.000021(  12)      0.000008(  20)
   5  O         0.000025(   5)     -0.000070(  13)     -0.000039(  21)
   6  H         0.000030(   6)     -0.000035(  14)     -0.000008(  22)
   7  Cu       -0.000061(   7)     -0.000005(  15)      0.000063(  23)
   8  O        -0.000009(   8)      0.000077(  16)     -0.000050(  24)
 ------------------------------------------------------------------------
 Internal  Forces:  Max     0.000076796 RMS     0.000035555
 IRC-IRC-IRC-IRC-IRC-IRC-IRC-IRC-IRC-IRC-IRC-IRC-IRC-IRC-IRC-IRC-IRC-IRC
 Berny reaction coordinate optimization.
                       ----------------------------
                       !    Initial Parameters    !
                       ! (Angstroms and Degrees)  !
 ----------------------                            ----------------------
 !      Name          Value   Derivative information (Atomic Units)     !
 ------------------------------------------------------------------------
 !       X1          0.0015   D2E/DX2 =    0.6938                       !
 !       Y1          0.0014   D2E/DX2 =   -0.3026                       !
 !       Z1         -0.0017   D2E/DX2 =    0.6451                       !
 !       X2          0.0055   D2E/DX2 =    0.0376                       !
 !       Y2          0.0022   D2E/DX2 =    0.0355                       !
 !       Z2          1.0909   D2E/DX2 =    0.3381                       !
 !       X3          0.9218   D2E/DX2 =    0.2868                       !
 !       Y3         -0.0006   D2E/DX2 =    0.0503                       !
 !       Z3         -0.5671   D2E/DX2 =    0.135                        !
 !       X4         -0.925    D2E/DX2 =    0.2972                       !
 !       Y4         -0.0867   D2E/DX2 =    0.0538                       !
 !       Z4         -0.5451   D2E/DX2 =    0.1311                       !
 !       X5         -0.009    D2E/DX2 =    0.3849                       !
 !       Y5         -1.8115   D2E/DX2 =    0.0699                       !
 !       Z5          0.3448   D2E/DX2 =    0.0889                       !
 !       X6          0.8727   D2E/DX2 =    0.3574                       !
 !       Y6         -2.0076   D2E/DX2 =    0.0443                       !
 !       Z6          0.747    D2E/DX2 =    0.077                        !
 !       X7         -1.1977   D2E/DX2 =    0.0778                       !
 !       Y7          2.5772   D2E/DX2 =    0.0431                       !
 !       Z7          1.2852   D2E/DX2 =    0.0584                       !
 !       X8          0.0161   D2E/DX2 =    0.0947                       !
 !       Y8          1.7607   D2E/DX2 =    0.0617                       !
 !       Z8          0.2204   D2E/DX2 =    0.0768                       !
 ------------------------------------------------------------------------
 Initial trust radius is 3.000D-01.
 Number of steps in this run=  34 maximum allowed number of steps= 100.
 IRC-IRC-IRC-IRC-IRC-IRC-IRC-IRC-IRC-IRC-IRC-IRC-IRC-IRC-IRC-IRC-IRC-IRC
 ------------------------------------------------------------------------
                         Z-MATRIX (ANGSTROMS AND DEGREES)
 CD Cent Atom  N1     Length/X     N2    Alpha/Y     N3     Beta/Z      J
 ------------------------------------------------------------------------
   1   1  C     0   0.001190          0.010362         -0.002030
   2   2  H     0   0.005508         -0.009858          1.090710
   3   3  H     0   0.921726         -0.002439         -0.567006
   4   4  H     0  -0.924613         -0.088443         -0.545079
   5   5  O     0  -0.008916         -1.814113          0.345545
   6   6  H     0   0.873186         -2.009899          0.747687
   7   7  Cu    0  -1.197658          2.577087          1.285091
   8   8  O     0   0.015977          1.758034          0.220044
 ------------------------------------------------------------------------
                         Z-Matrix orientation:                         
 ---------------------------------------------------------------------
 Center     Atomic     Atomic              Coordinates (Angstroms)
 Number     Number      Type              X           Y           Z
 ---------------------------------------------------------------------
    1          6             0        0.001190    0.010362   -0.002030
    2          1             0        0.005508   -0.009858    1.090710
    3          1             0        0.921726   -0.002439   -0.567006
    4          1             0       -0.924613   -0.088443   -0.545079
    5          8             0       -0.008916   -1.814113    0.345545
    6          1             0        0.873186   -2.009899    0.747687
    7         29             0       -1.197658    2.577087    1.285091
    8          8             0        0.015977    1.758034    0.220044
 ---------------------------------------------------------------------
                    Distance matrix (angstroms):
                    1          2          3          4          5
     1  C    0.000000
     2  H    1.092936   0.000000
     3  H    1.080161   1.894078   0.000000
     4  H    1.077856   1.883376   1.848471   0.000000
     5  O    1.857316   1.952131   2.231817   2.147009   0.000000
     6  H    2.324631   2.206965   2.400140   2.931778   0.989017
     7  Cu   3.111590   2.859663   3.817853   3.244861   4.645266
     8  O    1.761786   1.970687   2.130514   2.208981   3.574437
                    6          7          8
     6  H    0.000000
     7  Cu   5.061387   0.000000
     8  O    3.900068   1.810548   0.000000
                           Interatomic angles:
       H2-C1-H3=121.2898       H2-C1-H4=120.3599       H3-C1-H4=117.8649
       H2-H4-H3= 60.9923       H2-C1-O5= 78.1555       H3-C1-O5= 95.2141
       H3-H2-O5= 70.9199       H4-C1-O5= 89.975        H4-H2-O5= 68.0528
       H3-H4-O5= 67.4376       C1-H2-H6= 82.1211       H3-C1-H6= 80.7183
       H3-H2-H6= 71.1761       H4-C1-H6=113.8922       H4-H2-H6= 91.2236
       H4-H3-H6= 86.2379       C1-O5-H6=105.4085       H2-O5-H6= 91.2127
       H3-O5-H6= 87.423        H4-O5-H6=135.0866      C1-H2-Cu7= 92.8409
      H3-H2-Cu7=105.0386      H4-H2-Cu7= 83.627       O5-H2-Cu7=149.1982
      H6-H2-Cu7=174.7433       H2-C1-O8= 83.8168       H3-C1-O8= 94.0446
       H3-H2-O8= 66.8737       H4-C1-O8= 99.3027       H4-H2-O8= 69.8992
       H4-H3-O8= 67.0096       O5-C1-O8=161.972        O5-H2-O8=131.3404
       O5-H3-O8=110.0253       O5-H4-O8=110.2777       H6-C1-O8=144.9154
       H6-H2-O8=137.9213       H6-H3-O8=118.6968       H6-H4-O8= 97.7007
      C1-O8-Cu7=121.1498      H2-O8-Cu7= 98.1852      H3-O8-Cu7=151.1738
      H4-O8-Cu7=107.2457
 Symmetry turned off by external request.
 Stoichiometry    CH4CuO2(2)
 Framework group  C1[X(CH4CuO2)]
 Deg. of freedom    18
 Full point group                 C1
 Rotational constants (GHZ):     17.3574710      1.4551815      1.3648769
 Basis read from rwf:  (5D, 7F)
 Pseudo-potential data read from rwf file.
 Integral buffers will be    131072 words long.
 Raffenetti 2 integral format.
 Two-electron integral symmetry is turned off.
    62 basis functions,   141 primitive gaussians,    65 cartesian basis functions
    23 alpha electrons       22 beta electrons
       nuclear repulsion energy       159.0298243993 Hartrees.
 NAtoms=    8 NActive=    8 NUniq=    8 SFac= 7.50D-01 NAtFMM=   80 NAOKFM=F Big=F
 One-electron integrals computed using PRISM.
   1 Symmetry operations used in ECPInt.
 ECPInt:  NShTT=     351 NPrTT=    2229 LenC2=     348 LenP2D=    1707.
 LDataN:  DoStor=F MaxTD1= 4 Len=   56
 LDataN:  DoStor=T MaxTD1= 4 Len=   56
 NBasis=    62 RedAO= T  NBF=    62
 NBsUse=    62 1.00D-06 NBFU=    62
 Initial guess read from the read-write file:
 <S**2> of initial guess= 0.7968
 Harris functional with IExCor=  402 diagonalized for initial guess.
 ExpMin= 2.40D-02 ExpMax= 5.48D+03 ExpMxC= 8.25D+02 IAcc=3 IRadAn=         5 AccDes= 0.00D+00
 HarFok:  IExCor= 402 AccDes= 0.00D+00 IRadAn=         5 IDoV=1
 ScaDFX=  1.000000  1.000000  1.000000  1.000000
 Requested convergence on RMS density matrix=1.00D-08 within 500 cycles.
 Requested convergence on MAX density matrix=1.00D-06.
 Requested convergence on             energy=1.00D-06.
 No special actions if energy rises.
 Keep R1 and R2 integrals in memory in canonical form, NReq=     6648884.
 SCF Done:  E(UB+HF-LYP) =  -386.903129274     A.U. after   17 cycles
             Convg  =    0.4257D-08             -V/T =  2.2191
             S**2   =   0.7976
 Annihilation of the first spin contaminant:
 S**2 before annihilation     0.7976,   after     0.7508
   1 Symmetry operations used in ECPInt.
 ECPInt:  NShTT=     351 NPrTT=    2229 LenC2=     348 LenP2D=    1707.
 LDataN:  DoStor=F MaxTD1= 5 Len=  102
 LDataN:  DoStor=T MaxTD1= 5 Len=  102
 -------------------------------------------------------------------
 Center     Atomic                   Forces (Hartrees/Bohr)
 Number     Number              X              Y              Z
 -------------------------------------------------------------------
    1          6          -0.000293081    0.008019410   -0.000144725
    2          1          -0.000002636   -0.000926774   -0.000114274
    3          1          -0.000034188   -0.000108118    0.000020308
    4          1           0.000063520   -0.000150105    0.000016066
    5          8           0.000118996   -0.003127860    0.000866300
    6          1           0.000065592   -0.000209318    0.000041605
    7         29           0.000233793   -0.000365441   -0.000234784
    8          8          -0.000151997   -0.003131794   -0.000450496
 -------------------------------------------------------------------
 Cartesian Forces:  Max     0.008019410 RMS     0.001895228
 ------------------------------------------------------------------------
           Internal Coordinate Forces (Hartree/Bohr or radian)
 Cent Atom N1     Length/X     N2     Alpha/Y      N3      Beta/Z       J
 ------------------------------------------------------------------------
   1  C        -0.000293(   1)      0.008019(   9)     -0.000145(  17)
   2  H        -0.000003(   2)     -0.000927(  10)     -0.000114(  18)
   3  H        -0.000034(   3)     -0.000108(  11)      0.000020(  19)
   4  H         0.000064(   4)     -0.000150(  12)      0.000016(  20)
   5  O         0.000119(   5)     -0.003128(  13)      0.000866(  21)
   6  H         0.000066(   6)     -0.000209(  14)      0.000042(  22)
   7  Cu        0.000234(   7)     -0.000365(  15)     -0.000235(  23)
   8  O        -0.000152(   8)     -0.003132(  16)     -0.000450(  24)
 ------------------------------------------------------------------------
 Internal  Forces:  Max     0.008019410 RMS     0.001895228
 IRC-IRC-IRC-IRC-IRC-IRC-IRC-IRC-IRC-IRC-IRC-IRC-IRC-IRC-IRC-IRC-IRC-IRC
 Berny reaction coordinate optimization.
 Search for a local minimum.
 Pt  1 Step number   1 out of a maximum of  34
 All quantities printed in internal units (Hartrees-Bohrs-Radians)
 Second derivative matrix not updated -- first step.
 The second derivative matrix:
                          X1        Y1        Z1        X2        Y2
           X1           0.69381
           Y1           0.03979  -0.30263
           Z1           0.00227   0.02852   0.64513
           X2          -0.05234  -0.00379  -0.00251   0.03760
           Y2          -0.00154   0.07189  -0.00211  -0.00249   0.03548
           Z2          -0.00116  -0.00174  -0.32351   0.00199  -0.00049
           X3          -0.28522  -0.00122   0.13653   0.00536  -0.00012
           Y3           0.00030   0.00083   0.00093  -0.00061  -0.00181
           Z3           0.13662  -0.00122  -0.14267   0.01918  -0.00037
           X4          -0.29494  -0.02412  -0.13650   0.00540   0.00039
           Y4          -0.02659  -0.00247  -0.01578   0.00023  -0.00195
           Z4          -0.13558  -0.01340  -0.13770  -0.01961  -0.00079
           X5          -0.03287   0.00387  -0.00433   0.00280  -0.00056
           Y5          -0.01786   0.10196   0.01470   0.00266  -0.04845
           Z5           0.00217  -0.03974  -0.01613   0.00019   0.00038
           X6           0.00076  -0.00975   0.00072  -0.00066   0.00229
           Y6           0.01493   0.00831   0.00574   0.00102  -0.00329
           Z6          -0.00521  -0.00767  -0.00189   0.00054  -0.00043
           X7          -0.00194   0.00127  -0.00052  -0.00003   0.00330
           Y7           0.00510   0.00328  -0.00375   0.00085  -0.00446
           Z7           0.00160   0.00126  -0.00037   0.00022  -0.00203
           X8          -0.02726  -0.00605   0.00436   0.00187  -0.00127
           Y8          -0.01414   0.11883  -0.02824   0.00212  -0.04741
           Z8          -0.00071   0.03399  -0.02285   0.00001   0.00584
                          Z2        X3        Y3        Z3        X4
           Z2           0.33811
           X3          -0.00254   0.28678
           Y3          -0.00016  -0.00193   0.05026
           Z3          -0.00438  -0.14668   0.00008   0.13500
           X4           0.00242  -0.01256  -0.00098  -0.01256   0.29716
           Y4           0.00047   0.00024   0.00160  -0.00006   0.02156
           Z4          -0.00511   0.01356   0.00059   0.01241   0.14553
           X5          -0.00128   0.00280  -0.01117   0.00177   0.00005
           Y5          -0.01492  -0.00006  -0.02349   0.00446   0.00228
           Z5          -0.00226  -0.00120   0.01133   0.00051  -0.00076
           X6           0.00059   0.00062  -0.00014   0.00003   0.00108
           Y6           0.00072  -0.00017  -0.00019   0.00060  -0.00026
           Z6           0.00054   0.00021   0.00108  -0.00108   0.00045
           X7           0.00033   0.00046  -0.00041  -0.00031   0.00037
           Y7          -0.00056  -0.00047  -0.00115  -0.00023   0.00031
           Z7          -0.00014  -0.00026   0.00032   0.00044   0.00038
           X8          -0.00035   0.00177   0.01495   0.00195   0.00344
           Y8           0.01668   0.00372  -0.02606  -0.00325   0.00083
           Z8          -0.00326   0.00039  -0.01416  -0.00022   0.00104
                          Y4        Z4        X5        Y5        Z5
           Y4           0.05377
           Z4           0.01248   0.13105
           X5           0.01648  -0.00406   0.38488
           Y5          -0.01872   0.00211  -0.06884   0.06989
           Z5           0.01297  -0.00204   0.16636  -0.03319   0.08895
           X6          -0.00037   0.00102  -0.35937   0.08133  -0.16433
           Y6          -0.00536   0.00157   0.05936  -0.03968   0.03041
           Z6           0.00181   0.00037  -0.15859   0.04051  -0.07582
           X7          -0.00132  -0.00039  -0.00004   0.00025  -0.00025
           Y7          -0.00070  -0.00036  -0.00026  -0.00213   0.00114
           Z7          -0.00029  -0.00024  -0.00051  -0.00128   0.00029
           X8          -0.01024  -0.00047   0.00173   0.00024  -0.00219
           Y8          -0.02617  -0.00221   0.00113  -0.03939   0.01671
           Z8          -0.01161   0.00126   0.00064  -0.01239   0.00651
                          X6        Y6        Z6        X7        Y7
           X6           0.35735
           Y6          -0.07514   0.04429
           Z6           0.16118  -0.03758   0.07703
           X7          -0.00009   0.00038  -0.00004   0.07781
           Y7           0.00019  -0.00029   0.00003  -0.05272   0.04314
           Z7          -0.00007  -0.00015   0.00033  -0.06754   0.04686
           X8           0.00031  -0.00013   0.00147  -0.07655   0.04699
           Y8           0.00159  -0.00380   0.00224   0.04925  -0.03770
           Z8           0.00086  -0.00130   0.00052   0.06873  -0.04313
                          Z7        X8        Y8        Z8
           Z7           0.05843
           X8           0.06619   0.09469
           Y8          -0.04469  -0.04450   0.06170
           Z8          -0.05873  -0.07097   0.04276   0.07676
 ANGLE THETA= 146.50041
 BRACKET FOR LAMBDA OBTAINED IN CYCLES=   29
 Linear search not attempted -- first point.
 Variable       Old X    -DE/DX   Delta X   Delta X   Delta X     New X
                                 (Linear)    (Quad)   (Total)

    X1        0.00225   0.00000   0.00000   0.00001   0.00001   0.00225
    Y1        0.01958   0.00000   0.00000   0.00000   0.00000   0.01958
    Z1       -0.00384   0.00003   0.00000   0.00003   0.00003  -0.00381
    X2        0.01041   0.00000   0.00000   0.00000   0.00000   0.01041
    Y2       -0.01863  -0.00002   0.00000  -0.00007  -0.00007  -0.01870
    Z2        2.06114  -0.00010   0.00000  -0.00017  -0.00017   2.06097
    X3        1.74181  -0.00003   0.00000  -0.00005  -0.00005   1.74176
    Y3       -0.00461   0.00003   0.00000   0.00014   0.00014  -0.00447
    Z3       -1.07149   0.00002   0.00000   0.00004   0.00004  -1.07145
    X4       -1.74727   0.00003   0.00000   0.00007   0.00007  -1.74719
    Y4       -0.16713  -0.00001   0.00000  -0.00007  -0.00007  -0.16720
    Z4       -1.03005   0.00002   0.00000   0.00004   0.00004  -1.03001
    X5       -0.01685   0.00001   0.00000   0.00001   0.00001  -0.01683
    Y5       -3.42818  -0.00001   0.00000  -0.00001  -0.00001  -3.42819
    Z5        0.65298  -0.00001   0.00000  -0.00001  -0.00001   0.65297
    X6        1.65008   0.00003   0.00000   0.00007   0.00007   1.65015
    Y6       -3.79816  -0.00003   0.00000  -0.00015  -0.00015  -3.79831
    Z6        1.41292  -0.00001   0.00000  -0.00010  -0.00010   1.41283
    X7       -2.26325  -0.00001   0.00000  -0.00001  -0.00001  -2.26325
    Y7        4.86999   0.00000   0.00000   0.00000   0.00000   4.86999
    Z7        2.42847   0.00001   0.00000   0.00001   0.00001   2.42848
    X8        0.03019   0.00000   0.00000   0.00000   0.00000   0.03019
    Y8        3.32220   0.00002   0.00000   0.00003   0.00003   3.32223
    Z8        0.41582  -0.00001   0.00000  -0.00002  -0.00002   0.41580
         Item               Value     Threshold  Pt  1 Converged?
 Maximum Force            0.000099     0.000135     YES
 RMS     Force            0.000027     0.000090     YES
 Maximum Displacement     0.000172     0.000540     YES
 RMS     Displacement     0.000068     0.000360     YES
 Predicted change in energy=-9.233647D-09
 Optimization completed.
    -- Optimized point #   1 Found.
                       ----------------------------
                       !   Optimized Parameters   !
                       ! (Angstroms and Degrees)  !
 ----------------------                            ----------------------
 !      Name          Value   Derivative information (Atomic Units)     !
 ------------------------------------------------------------------------
 !       X1          0.0012   -DE/DX =   -0.0003                        !
 !       Y1          0.0104   -DE/DX =    0.008                         !
 !       Z1         -0.002    -DE/DX =   -0.0001                        !
 !       X2          0.0055   -DE/DX =    0.0                           !
 !       Y2         -0.0099   -DE/DX =   -0.0009                        !
 !       Z2          1.0906   -DE/DX =   -0.0001                        !
 !       X3          0.9217   -DE/DX =    0.0                           !
 !       Y3         -0.0024   -DE/DX =   -0.0001                        !
 !       Z3         -0.567    -DE/DX =    0.0                           !
 !       X4         -0.9246   -DE/DX =    0.0001                        !
 !       Y4         -0.0885   -DE/DX =   -0.0002                        !
 !       Z4         -0.5451   -DE/DX =    0.0                           !
 !       X5         -0.0089   -DE/DX =    0.0001                        !
 !       Y5         -1.8141   -DE/DX =   -0.0031                        !
 !       Z5          0.3455   -DE/DX =    0.0009                        !
 !       X6          0.8732   -DE/DX =    0.0001                        !
 !       Y6         -2.01     -DE/DX =   -0.0002                        !
 !       Z6          0.7476   -DE/DX =    0.0                           !
 !       X7         -1.1977   -DE/DX =    0.0002                        !
 !       Y7          2.5771   -DE/DX =   -0.0004                        !
 !       Z7          1.2851   -DE/DX =   -0.0002                        !
 !       X8          0.016    -DE/DX =   -0.0002                        !
 !       Y8          1.758    -DE/DX =   -0.0031                        !
 !       Z8          0.22     -DE/DX =   -0.0005                        !
 ------------------------------------------------------------------------
   RADIUS OF CURVATURE =    0.05202
   NET REACTION COORDINATE UP TO THIS POINT =    0.02921
  # OF POINTS ALONG THE PATH =  1
  # OF STEPS =   1
 Calculating another point on the path 
 Stepping into the G*F direction 
 IRC-IRC-IRC-IRC-IRC-IRC-IRC-IRC-IRC-IRC-IRC-IRC-IRC-IRC-IRC-IRC-IRC-IRC
 ------------------------------------------------------------------------
                         Z-MATRIX (ANGSTROMS AND DEGREES)
 CD Cent Atom  N1     Length/X     N2    Alpha/Y     N3     Beta/Z      J
 ------------------------------------------------------------------------
   1   1  C     0   0.001055          0.014203         -0.002068
   2   2  H     0   0.005498         -0.015221          1.089876
   3   3  H     0   0.921475         -0.002908         -0.566850
   4   4  H     0  -0.924172         -0.089375         -0.544945
   5   5  O     0  -0.008858         -1.815254          0.345841
   6   6  H     0   0.873631         -2.011256          0.747824
   7   7  Cu    0  -1.197642          2.577053          1.285076
   8   8  O     0   0.015919          1.756936          0.219863
 ------------------------------------------------------------------------
                         Z-Matrix orientation:                         
 ---------------------------------------------------------------------
 Center     Atomic     Atomic              Coordinates (Angstroms)
 Number     Number      Type              X           Y           Z
 ---------------------------------------------------------------------
    1          6             0        0.001055    0.014203   -0.002068
    2          1             0        0.005498   -0.015221    1.089876
    3          1             0        0.921475   -0.002908   -0.566850
    4          1             0       -0.924172   -0.089375   -0.544945
    5          8             0       -0.008858   -1.815254    0.345841
    6          1             0        0.873631   -2.011256    0.747824
    7         29             0       -1.197642    2.577053    1.285076
    8          8             0        0.015919    1.756936    0.219863
 ---------------------------------------------------------------------
                    Distance matrix (angstroms):
                    1          2          3          4          5
     1  C    0.000000
     2  H    1.092349   0.000000
     3  H    1.080021   1.893120   0.000000
     4  H    1.077724   1.882132   1.847801   0.000000
     5  O    1.862270   1.947797   2.232291   2.147081   0.000000
     6  H    2.329423   2.203363   2.400858   2.932059   0.989340
     7  Cu   3.108346   2.864530   3.817916   3.245551   4.646260
     8  O    1.756870   1.974227   2.129788   2.208521   3.574497
                    6          7          8
     6  H    0.000000
     7  Cu   5.062746   0.000000
     8  O    3.900472   1.811078   0.000000
                           Interatomic angles:
       H2-C1-H3=121.255        H2-C1-H4=120.2943       H3-C1-H4=117.8201
       H2-H4-H3= 60.993        H2-C1-O5= 77.6906       H3-C1-O5= 94.9719
       H3-H2-O5= 71.0519       H4-C1-O5= 89.7205       H4-H2-O5= 68.1705
       H3-H4-O5= 67.4632       C1-H2-H6= 82.5778       H3-C1-H6= 80.5222
       H3-H2-H6= 71.3008       H4-C1-H6=113.5893       H4-H2-H6= 91.3799
       H4-H3-H6= 86.2421       C1-O5-H6=105.4135       H2-O5-H6= 91.2207
       H3-O5-H6= 87.4334       H4-O5-H6=135.0794      C1-H2-Cu7= 92.4091
      H3-H2-Cu7=104.8904      H4-H2-Cu7= 83.5337      O5-H2-Cu7=149.2312
      H6-H2-Cu7=174.7899       H2-C1-O8= 84.2845       H3-C1-O8= 94.2761
       H3-H2-O8= 66.7933       H4-C1-O8= 99.5687       H4-H2-O8= 69.8301
       H4-H3-O8= 67.0204       O5-C1-O8=161.9748       O5-H2-O8=131.3954
       O5-H3-O8=110.037        O5-H4-O8=110.2952       H6-C1-O8=144.9528
       H6-H2-O8=137.961        H6-H3-O8=118.7159       H6-H4-O8= 97.7173
      C1-O8-Cu7=121.186       H2-O8-Cu7= 98.265       H3-O8-Cu7=151.2044
      H4-O8-Cu7=107.2786
 Symmetry turned off by external request.
 Stoichiometry    CH4CuO2(2)
 Framework group  C1[X(CH4CuO2)]
 Deg. of freedom    18
 Full point group                 C1
 Rotational constants (GHZ):     17.3503143      1.4552599      1.3648873
 Basis read from rwf:  (5D, 7F)
 Pseudo-potential data read from rwf file.
 Integral buffers will be    131072 words long.
 Raffenetti 2 integral format.
 Two-electron integral symmetry is turned off.
    62 basis functions,   141 primitive gaussians,    65 cartesian basis functions
    23 alpha electrons       22 beta electrons
       nuclear repulsion energy       159.0302476155 Hartrees.
 NAtoms=    8 NActive=    8 NUniq=    8 SFac= 7.50D-01 NAtFMM=   80 NAOKFM=F Big=F
 One-electron integrals computed using PRISM.
   1 Symmetry operations used in ECPInt.
 ECPInt:  NShTT=     351 NPrTT=    2229 LenC2=     348 LenP2D=    1707.
 LDataN:  DoStor=F MaxTD1= 4 Len=   56
 LDataN:  DoStor=T MaxTD1= 4 Len=   56
 NBasis=    62 RedAO= T  NBF=    62
 NBsUse=    62 1.00D-06 NBFU=    62
 Initial guess read from the read-write file:
 <S**2> of initial guess= 0.7976
 Harris functional with IExCor=  402 diagonalized for initial guess.
 ExpMin= 2.40D-02 ExpMax= 5.48D+03 ExpMxC= 8.25D+02 IAcc=3 IRadAn=         5 AccDes= 0.00D+00
 HarFok:  IExCor= 402 AccDes= 0.00D+00 IRadAn=         5 IDoV=1
 ScaDFX=  1.000000  1.000000  1.000000  1.000000
 Requested convergence on RMS density matrix=1.00D-08 within 500 cycles.
 Requested convergence on MAX density matrix=1.00D-06.
 Requested convergence on             energy=1.00D-06.
 No special actions if energy rises.
 Keep R1 and R2 integrals in memory in canonical form, NReq=     6648884.
 SCF Done:  E(UB+HF-LYP) =  -386.903229326     A.U. after   17 cycles
             Convg  =    0.1903D-08             -V/T =  2.2191
             S**2   =   0.7978
 Annihilation of the first spin contaminant:
 S**2 before annihilation     0.7978,   after     0.7508
   1 Symmetry operations used in ECPInt.
 ECPInt:  NShTT=     351 NPrTT=    2229 LenC2=     348 LenP2D=    1707.
 LDataN:  DoStor=F MaxTD1= 5 Len=  102
 LDataN:  DoStor=T MaxTD1= 5 Len=  102
 -------------------------------------------------------------------
 Center     Atomic                   Forces (Hartrees/Bohr)
 Number     Number              X              Y              Z
 -------------------------------------------------------------------
    1          6          -0.000402393    0.011463138   -0.000488715
    2          1           0.000000931   -0.001310405    0.000271535
    3          1           0.000072729   -0.000194666   -0.000045121
    4          1          -0.000049997   -0.000200896   -0.000060324
    5          8           0.000311113   -0.004499295    0.001310389
    6          1          -0.000066227   -0.000238873   -0.000005060
    7         29           0.000362729   -0.000521669   -0.000365691
    8          8          -0.000228886   -0.004497333   -0.000617014
 -------------------------------------------------------------------
 Cartesian Forces:  Max     0.011463138 RMS     0.002715714
 ------------------------------------------------------------------------
           Internal Coordinate Forces (Hartree/Bohr or radian)
 Cent Atom N1     Length/X     N2     Alpha/Y      N3      Beta/Z       J
 ------------------------------------------------------------------------
   1  C        -0.000402(   1)      0.011463(   9)     -0.000489(  17)
   2  H         0.000001(   2)     -0.001310(  10)      0.000272(  18)
   3  H         0.000073(   3)     -0.000195(  11)     -0.000045(  19)
   4  H        -0.000050(   4)     -0.000201(  12)     -0.000060(  20)
   5  O         0.000311(   5)     -0.004499(  13)      0.001310(  21)
   6  H        -0.000066(   6)     -0.000239(  14)     -0.000005(  22)
   7  Cu        0.000363(   7)     -0.000522(  15)     -0.000366(  23)
   8  O        -0.000229(   8)     -0.004497(  16)     -0.000617(  24)
 ------------------------------------------------------------------------
 Internal  Forces:  Max     0.011463138 RMS     0.002715714
 IRC-IRC-IRC-IRC-IRC-IRC-IRC-IRC-IRC-IRC-IRC-IRC-IRC-IRC-IRC-IRC-IRC-IRC
 Berny reaction coordinate optimization.
 Search for a local minimum.
 Pt  2 Step number   1 out of a maximum of  34
 All quantities printed in internal units (Hartrees-Bohrs-Radians)
 Second derivative matrix not updated -- first step.
 The second derivative matrix:
                          X1        Y1        Z1        X2        Y2
           X1           0.69381
           Y1           0.03979  -0.30263
           Z1           0.00227   0.02852   0.64513
           X2          -0.05234  -0.00379  -0.00251   0.03760
           Y2          -0.00154   0.07189  -0.00211  -0.00249   0.03548
           Z2          -0.00116  -0.00174  -0.32351   0.00199  -0.00049
           X3          -0.28522  -0.00122   0.13653   0.00536  -0.00012
           Y3           0.00030   0.00083   0.00093  -0.00061  -0.00181
           Z3           0.13662  -0.00122  -0.14267   0.01918  -0.00037
           X4          -0.29494  -0.02412  -0.13650   0.00540   0.00039
           Y4          -0.02659  -0.00247  -0.01578   0.00023  -0.00195
           Z4          -0.13558  -0.01340  -0.13770  -0.01961  -0.00079
           X5          -0.03287   0.00387  -0.00433   0.00280  -0.00056
           Y5          -0.01786   0.10196   0.01470   0.00266  -0.04845
           Z5           0.00217  -0.03974  -0.01613   0.00019   0.00038
           X6           0.00076  -0.00975   0.00072  -0.00066   0.00229
           Y6           0.01493   0.00831   0.00574   0.00102  -0.00329
           Z6          -0.00521  -0.00767  -0.00189   0.00054  -0.00043
           X7          -0.00194   0.00127  -0.00052  -0.00003   0.00330
           Y7           0.00510   0.00328  -0.00375   0.00085  -0.00446
           Z7           0.00160   0.00126  -0.00037   0.00022  -0.00203
           X8          -0.02726  -0.00605   0.00436   0.00187  -0.00127
           Y8          -0.01414   0.11883  -0.02824   0.00212  -0.04741
           Z8          -0.00071   0.03399  -0.02285   0.00001   0.00584
                          Z2        X3        Y3        Z3        X4
           Z2           0.33811
           X3          -0.00254   0.28678
           Y3          -0.00016  -0.00193   0.05026
           Z3          -0.00438  -0.14668   0.00008   0.13500
           X4           0.00242  -0.01256  -0.00098  -0.01256   0.29716
           Y4           0.00047   0.00024   0.00160  -0.00006   0.02156
           Z4          -0.00511   0.01356   0.00059   0.01241   0.14553
           X5          -0.00128   0.00280  -0.01117   0.00177   0.00005
           Y5          -0.01492  -0.00006  -0.02349   0.00446   0.00228
           Z5          -0.00226  -0.00120   0.01133   0.00051  -0.00076
           X6           0.00059   0.00062  -0.00014   0.00003   0.00108
           Y6           0.00072  -0.00017  -0.00019   0.00060  -0.00026
           Z6           0.00054   0.00021   0.00108  -0.00108   0.00045
           X7           0.00033   0.00046  -0.00041  -0.00031   0.00037
           Y7          -0.00056  -0.00047  -0.00115  -0.00023   0.00031
           Z7          -0.00014  -0.00026   0.00032   0.00044   0.00038
           X8          -0.00035   0.00177   0.01495   0.00195   0.00344
           Y8           0.01668   0.00372  -0.02606  -0.00325   0.00083
           Z8          -0.00326   0.00039  -0.01416  -0.00022   0.00104
                          Y4        Z4        X5        Y5        Z5
           Y4           0.05377
           Z4           0.01248   0.13105
           X5           0.01648  -0.00406   0.38488
           Y5          -0.01872   0.00211  -0.06884   0.06989
           Z5           0.01297  -0.00204   0.16636  -0.03319   0.08895
           X6          -0.00037   0.00102  -0.35937   0.08133  -0.16433
           Y6          -0.00536   0.00157   0.05936  -0.03968   0.03041
           Z6           0.00181   0.00037  -0.15859   0.04051  -0.07582
           X7          -0.00132  -0.00039  -0.00004   0.00025  -0.00025
           Y7          -0.00070  -0.00036  -0.00026  -0.00213   0.00114
           Z7          -0.00029  -0.00024  -0.00051  -0.00128   0.00029
           X8          -0.01024  -0.00047   0.00173   0.00024  -0.00219
           Y8          -0.02617  -0.00221   0.00113  -0.03939   0.01671
           Z8          -0.01161   0.00126   0.00064  -0.01239   0.00651
                          X6        Y6        Z6        X7        Y7
           X6           0.35735
           Y6          -0.07514   0.04429
           Z6           0.16118  -0.03758   0.07703
           X7          -0.00009   0.00038  -0.00004   0.07781
           Y7           0.00019  -0.00029   0.00003  -0.05272   0.04314
           Z7          -0.00007  -0.00015   0.00033  -0.06754   0.04686
           X8           0.00031  -0.00013   0.00147  -0.07655   0.04699
           Y8           0.00159  -0.00380   0.00224   0.04925  -0.03770
           Z8           0.00086  -0.00130   0.00052   0.06873  -0.04313
                          Z7        X8        Y8        Z8
           Z7           0.05843
           X8           0.06619   0.09469
           Y8          -0.04469  -0.04450   0.06170
           Z8          -0.05873  -0.07097   0.04276   0.07676
 ANGLE THETA= 145.53347
 BRACKET FOR LAMBDA OBTAINED IN CYCLES=   38
 Linear search not attempted -- first point.
 Variable       Old X    -DE/DX   Delta X   Delta X   Delta X     New X
                                 (Linear)    (Quad)   (Total)

    X1        0.00199   0.00000   0.00000   0.00000   0.00000   0.00199
    Y1        0.02684   0.00003   0.00000   0.00001   0.00001   0.02685
    Z1       -0.00391  -0.00008   0.00000  -0.00004  -0.00004  -0.00395
    X2        0.01039   0.00000   0.00000   0.00001   0.00001   0.01040
    Y2       -0.02876   0.00000   0.00000   0.00004   0.00004  -0.02873
    Z2        2.05957   0.00043   0.00000   0.00070   0.00070   2.06027
    X3        1.74134   0.00012   0.00000   0.00020   0.00020   1.74153
    Y3       -0.00549  -0.00004   0.00000  -0.00013  -0.00013  -0.00562
    Z3       -1.07119  -0.00007   0.00000  -0.00012  -0.00012  -1.07131
    X4       -1.74643  -0.00014   0.00000  -0.00023  -0.00023  -1.74666
    Y4       -0.16889   0.00001   0.00000   0.00006   0.00006  -0.16883
    Z4       -1.02980  -0.00008   0.00000  -0.00013  -0.00013  -1.02993
    X5       -0.01674   0.00004   0.00000   0.00001   0.00001  -0.01673
    Y5       -3.43033  -0.00002   0.00000   0.00000   0.00000  -3.43033
    Z5        0.65354   0.00002   0.00000   0.00001   0.00001   0.65355
    X6        1.65092  -0.00016   0.00000  -0.00022  -0.00022   1.65071
    Y6       -3.80072   0.00006   0.00000   0.00013   0.00013  -3.80059
    Z6        1.41318  -0.00006   0.00000  -0.00007  -0.00007   1.41312
    X7       -2.26322   0.00000   0.00000   0.00000   0.00000  -2.26321
    Y7        4.86992   0.00000   0.00000   0.00000   0.00000   4.86992
    Z7        2.42844   0.00000   0.00000   0.00000   0.00000   2.42844
    X8        0.03008   0.00000   0.00000   0.00000   0.00000   0.03008
    Y8        3.32013  -0.00001   0.00000  -0.00001  -0.00001   3.32012
    Z8        0.41548   0.00001   0.00000   0.00001   0.00001   0.41549
         Item               Value     Threshold  Pt  2 Converged?
 Maximum Force            0.000432     0.000135     NO 
 RMS     Force            0.000107     0.000090     NO 
 Maximum Displacement     0.000700     0.000540     NO 
 RMS     Displacement     0.000172     0.000360     YES
 Predicted change in energy=-1.274822D-07
 IRC-IRC-IRC-IRC-IRC-IRC-IRC-IRC-IRC-IRC-IRC-IRC-IRC-IRC-IRC-IRC-IRC-IRC
 ------------------------------------------------------------------------
                         Z-MATRIX (ANGSTROMS AND DEGREES)
 CD Cent Atom  N1     Length/X     N2    Alpha/Y     N3     Beta/Z      J
 ------------------------------------------------------------------------
   1   1  C     0   0.001055          0.014207         -0.002089
   2   2  H     0   0.005503         -0.015202          1.090246
   3   3  H     0   0.921581         -0.002975         -0.566915
   4   4  H     0  -0.924293         -0.089343         -0.545016
   5   5  O     0  -0.008853         -1.815254          0.345845
   6   6  H     0   0.873516         -2.011187          0.747788
   7   7  Cu    0  -1.197641          2.577053          1.285075
   8   8  O     0   0.015918          1.756930          0.219866
 ------------------------------------------------------------------------
                         Z-Matrix orientation:                         
 ---------------------------------------------------------------------
 Center     Atomic     Atomic              Coordinates (Angstroms)
 Number     Number      Type              X           Y           Z
 ---------------------------------------------------------------------
    1          6             0        0.001055    0.014207   -0.002089
    2          1             0        0.005503   -0.015202    1.090246
    3          1             0        0.921581   -0.002975   -0.566915
    4          1             0       -0.924293   -0.089343   -0.545016
    5          8             0       -0.008853   -1.815254    0.345845
    6          1             0        0.873516   -2.011187    0.747788
    7         29             0       -1.197641    2.577053    1.285075
    8          8             0        0.015918    1.756930    0.219866
 ---------------------------------------------------------------------
                    Distance matrix (angstroms):
                    1          2          3          4          5
     1  C    0.000000
     2  H    1.092740   0.000000
     3  H    1.080135   1.893549   0.000000
     4  H    1.077850   1.882578   1.848022   0.000000
     5  O    1.862279   1.947955   2.232306   2.147192   0.000000
     6  H    2.329318   2.203334   2.400764   2.932055   0.989204
     7  Cu   3.108351   2.864490   3.818051   3.245554   4.646260
     8  O    1.756864   1.974366   2.129910   2.208566   3.574491
                    6          7          8
     6  H    0.000000
     7  Cu   5.062639   0.000000
     8  O    3.900370   1.811077   0.000000
                           Interatomic angles:
       H2-C1-H3=121.2539       H2-C1-H4=120.2939       H3-C1-H4=117.8217
       H2-H4-H3= 60.9962       H2-C1-O5= 77.6912       H3-C1-O5= 94.9684
       H3-H2-O5= 71.0401       H4-C1-O5= 89.7229       H4-H2-O5= 68.1625
       H3-H4-O5= 67.4577       C1-H2-H6= 82.5659       H3-C1-H6= 80.5204
       H3-H2-H6= 71.2908       H4-C1-H6=113.5898       H4-H2-H6= 91.3688
       H4-H3-H6= 86.2399       C1-O5-H6=105.4115       H2-O5-H6= 91.2137
       H3-O5-H6= 87.4298       H4-O5-H6=135.0799      C1-H2-Cu7= 92.4028
      H3-H2-Cu7=104.8851      H4-H2-Cu7= 83.5275      O5-H2-Cu7=149.221 
      H6-H2-Cu7=174.7716       H2-C1-O8= 84.2823       H3-C1-O8= 94.2802
       H3-H2-O8= 66.7868       H4-C1-O8= 99.5668       H4-H2-O8= 69.8199
       H4-H3-O8= 67.0158       O5-C1-O8=161.9733       O5-H2-O8=131.3757
       O5-H3-O8=110.0316       O5-H4-O8=110.2891       H6-C1-O8=144.9532
       H6-H2-O8=137.9453       H6-H3-O8=118.7098       H6-H4-O8= 97.7129
      C1-O8-Cu7=121.1868      H2-O8-Cu7= 98.2581      H3-O8-Cu7=151.2064
      H4-O8-Cu7=107.277 
 Symmetry turned off by external request.
 Stoichiometry    CH4CuO2(2)
 Framework group  C1[X(CH4CuO2)]
 Deg. of freedom    18
 Full point group                 C1
 Rotational constants (GHZ):     17.3497872      1.4552602      1.3648882
 Basis read from rwf:  (5D, 7F)
 Pseudo-potential data read from rwf file.
 Integral buffers will be    131072 words long.
 Raffenetti 2 integral format.
 Two-electron integral symmetry is turned off.
    62 basis functions,   141 primitive gaussians,    65 cartesian basis functions
    23 alpha electrons       22 beta electrons
       nuclear repulsion energy       159.0284805663 Hartrees.
 NAtoms=    8 NActive=    8 NUniq=    8 SFac= 7.50D-01 NAtFMM=   80 NAOKFM=F Big=F
 One-electron integrals computed using PRISM.
   1 Symmetry operations used in ECPInt.
 ECPInt:  NShTT=     351 NPrTT=    2229 LenC2=     348 LenP2D=    1707.
 LDataN:  DoStor=F MaxTD1= 4 Len=   56
 LDataN:  DoStor=T MaxTD1= 4 Len=   56
 NBasis=    62 RedAO= T  NBF=    62
 NBsUse=    62 1.00D-06 NBFU=    62
 Initial guess read from the read-write file:
 <S**2> of initial guess= 0.7978
 Harris functional with IExCor=  402 diagonalized for initial guess.
 ExpMin= 2.40D-02 ExpMax= 5.48D+03 ExpMxC= 8.25D+02 IAcc=3 IRadAn=         5 AccDes= 0.00D+00
 HarFok:  IExCor= 402 AccDes= 0.00D+00 IRadAn=         5 IDoV=1
 ScaDFX=  1.000000  1.000000  1.000000  1.000000
 Requested convergence on RMS density matrix=1.00D-08 within 500 cycles.
 Requested convergence on MAX density matrix=1.00D-06.
 Requested convergence on             energy=1.00D-06.
 No special actions if energy rises.
 Keep R1 and R2 integrals in memory in canonical form, NReq=     6648884.
 SCF Done:  E(UB+HF-LYP) =  -386.903229550     A.U. after   12 cycles
             Convg  =    0.8376D-08             -V/T =  2.2191
             S**2   =   0.7978
 Annihilation of the first spin contaminant:
 S**2 before annihilation     0.7978,   after     0.7508
   1 Symmetry operations used in ECPInt.
 ECPInt:  NShTT=     351 NPrTT=    2229 LenC2=     348 LenP2D=    1707.
 LDataN:  DoStor=F MaxTD1= 5 Len=  102
 LDataN:  DoStor=T MaxTD1= 5 Len=  102
 -------------------------------------------------------------------
 Center     Atomic                   Forces (Hartrees/Bohr)
 Number     Number              X              Y              Z
 -------------------------------------------------------------------
    1          6          -0.000412930    0.011446276   -0.000330948
    2          1          -0.000001448   -0.001306169    0.000022140
    3          1           0.000003333   -0.000187084   -0.000003202
    4          1           0.000029914   -0.000197072   -0.000012848
    5          8           0.000207850   -0.004460989    0.001265888
    6          1           0.000035926   -0.000263776    0.000041345
    7         29           0.000361907   -0.000521083   -0.000365107
    8          8          -0.000224552   -0.004510102   -0.000617269
 -------------------------------------------------------------------
 Cartesian Forces:  Max     0.011446276 RMS     0.002708057
 ------------------------------------------------------------------------
           Internal Coordinate Forces (Hartree/Bohr or radian)
 Cent Atom N1     Length/X     N2     Alpha/Y      N3      Beta/Z       J
 ------------------------------------------------------------------------
   1  C        -0.000413(   1)      0.011446(   9)     -0.000331(  17)
   2  H        -0.000001(   2)     -0.001306(  10)      0.000022(  18)
   3  H         0.000003(   3)     -0.000187(  11)     -0.000003(  19)
   4  H         0.000030(   4)     -0.000197(  12)     -0.000013(  20)
   5  O         0.000208(   5)     -0.004461(  13)      0.001266(  21)
   6  H         0.000036(   6)     -0.000264(  14)      0.000041(  22)
   7  Cu        0.000362(   7)     -0.000521(  15)     -0.000365(  23)
   8  O        -0.000225(   8)     -0.004510(  16)     -0.000617(  24)
 ------------------------------------------------------------------------
 Internal  Forces:  Max     0.011446276 RMS     0.002708057
 IRC-IRC-IRC-IRC-IRC-IRC-IRC-IRC-IRC-IRC-IRC-IRC-IRC-IRC-IRC-IRC-IRC-IRC
 Berny reaction coordinate optimization.
 Search for a local minimum.
 Pt  2 Step number   2 out of a maximum of  34
 All quantities printed in internal units (Hartrees-Bohrs-Radians)
 Update the second derivative matrix by bfgs method:
 The second derivative matrix:
                          X1        Y1        Z1        X2        Y2
           X1           0.69381
           Y1           0.03979  -0.30263
           Z1           0.00227   0.02852   0.64513
           X2          -0.05234  -0.00379  -0.00251   0.03760
           Y2          -0.00154   0.07189  -0.00211  -0.00249   0.03548
           Z2          -0.00116  -0.00174  -0.32351   0.00199  -0.00049
           X3          -0.28522  -0.00122   0.13653   0.00536  -0.00012
           Y3           0.00030   0.00083   0.00093  -0.00061  -0.00181
           Z3           0.13662  -0.00122  -0.14267   0.01918  -0.00037
           X4          -0.29494  -0.02412  -0.13650   0.00540   0.00039
           Y4          -0.02659  -0.00247  -0.01578   0.00023  -0.00195
           Z4          -0.13558  -0.01340  -0.13770  -0.01961  -0.00079
           X5          -0.03287   0.00387  -0.00433   0.00280  -0.00056
           Y5          -0.01786   0.10196   0.01470   0.00266  -0.04845
           Z5           0.00217  -0.03974  -0.01613   0.00019   0.00038
           X6           0.00076  -0.00975   0.00072  -0.00066   0.00229
           Y6           0.01493   0.00831   0.00574   0.00102  -0.00329
           Z6          -0.00521  -0.00767  -0.00189   0.00054  -0.00043
           X7          -0.00194   0.00127  -0.00052  -0.00003   0.00330
           Y7           0.00510   0.00328  -0.00375   0.00085  -0.00446
           Z7           0.00160   0.00126  -0.00037   0.00022  -0.00203
           X8          -0.02726  -0.00605   0.00436   0.00187  -0.00127
           Y8          -0.01414   0.11883  -0.02824   0.00212  -0.04741
           Z8          -0.00071   0.03399  -0.02285   0.00001   0.00584
                          Z2        X3        Y3        Z3        X4
           Z2           0.33811
           X3          -0.00254   0.28678
           Y3          -0.00016  -0.00193   0.05026
           Z3          -0.00438  -0.14668   0.00008   0.13500
           X4           0.00242  -0.01256  -0.00098  -0.01256   0.29716
           Y4           0.00047   0.00024   0.00160  -0.00006   0.02156
           Z4          -0.00511   0.01356   0.00059   0.01241   0.14553
           X5          -0.00128   0.00280  -0.01117   0.00177   0.00005
           Y5          -0.01492  -0.00006  -0.02349   0.00446   0.00228
           Z5          -0.00226  -0.00120   0.01133   0.00051  -0.00076
           X6           0.00059   0.00062  -0.00014   0.00003   0.00108
           Y6           0.00072  -0.00017  -0.00019   0.00060  -0.00026
           Z6           0.00054   0.00021   0.00108  -0.00108   0.00045
           X7           0.00033   0.00046  -0.00041  -0.00031   0.00037
           Y7          -0.00056  -0.00047  -0.00115  -0.00023   0.00031
           Z7          -0.00014  -0.00026   0.00032   0.00044   0.00038
           X8          -0.00035   0.00177   0.01495   0.00195   0.00344
           Y8           0.01668   0.00372  -0.02606  -0.00325   0.00083
           Z8          -0.00326   0.00039  -0.01416  -0.00022   0.00104
                          Y4        Z4        X5        Y5        Z5
           Y4           0.05377
           Z4           0.01248   0.13105
           X5           0.01648  -0.00406   0.38488
           Y5          -0.01872   0.00211  -0.06884   0.06989
           Z5           0.01297  -0.00204   0.16636  -0.03319   0.08895
           X6          -0.00037   0.00102  -0.35937   0.08133  -0.16433
           Y6          -0.00536   0.00157   0.05936  -0.03968   0.03041
           Z6           0.00181   0.00037  -0.15859   0.04051  -0.07582
           X7          -0.00132  -0.00039  -0.00004   0.00025  -0.00025
           Y7          -0.00070  -0.00036  -0.00026  -0.00213   0.00114
           Z7          -0.00029  -0.00024  -0.00051  -0.00128   0.00029
           X8          -0.01024  -0.00047   0.00173   0.00024  -0.00219
           Y8          -0.02617  -0.00221   0.00113  -0.03939   0.01671
           Z8          -0.01161   0.00126   0.00064  -0.01239   0.00651
                          X6        Y6        Z6        X7        Y7
           X6           0.35735
           Y6          -0.07514   0.04429
           Z6           0.16118  -0.03758   0.07703
           X7          -0.00009   0.00038  -0.00004   0.07781
           Y7           0.00019  -0.00029   0.00003  -0.05272   0.04314
           Z7          -0.00007  -0.00015   0.00033  -0.06754   0.04686
           X8           0.00031  -0.00013   0.00147  -0.07655   0.04699
           Y8           0.00159  -0.00380   0.00224   0.04925  -0.03770
           Z8           0.00086  -0.00130   0.00052   0.06873  -0.04313
                          Z7        X8        Y8        Z8
           Z7           0.05843
           X8           0.06619   0.09469
           Y8          -0.04469  -0.04450   0.06170
           Z8          -0.05873  -0.07097   0.04276   0.07676
 LINEAR SEARCH ALONG THE ARC HAS BEEN TURNED ON 
 ANGLE THETA= 147.69765
 BRACKET FOR LAMBDA OBTAINED IN CYCLES=   38
 Variable       Old X    -DE/DX   Delta X   Delta X   Delta X     New X
                                 (Linear)    (Quad)   (Total)

    X1        0.00199   0.00000   0.00000   0.00000   0.00000   0.00199
    Y1        0.02685   0.00000   0.00000   0.00000   0.00000   0.02685
[...]
           19          -1.80676   0.34332   0.87187  -2.00366   0.74543
           20          -1.80565   0.34298   0.87169  -2.00272   0.74507
           21          -1.80453   0.34264   0.87147  -2.00176   0.74471
           22          -1.80340   0.34230   0.87132  -2.00083   0.74439
           23          -1.80228   0.34196   0.87109  -1.99987   0.74403
           24          -1.80114   0.34161   0.87090  -1.99892   0.74370
           25          -1.80001   0.34127   0.87063  -1.99796   0.74333
           26          -1.79887   0.34093   0.87044  -1.99703   0.74300
           27          -1.79772   0.34058   0.87022  -1.99609   0.74266
           28          -1.79657   0.34024   0.87002  -1.99516   0.74233
           29          -1.79542   0.33989   0.86978  -1.99423   0.74199
           30          -1.79426   0.33954   0.86958  -1.99332   0.74167
           31          -1.79309   0.33919   0.86932  -1.99240   0.74132
                          X7        Y7        Z7        X8        Y8
           1           -1.19730   2.57661   1.28472   0.01522   1.74164
           2           -1.19733   2.57665   1.28475   0.01527   1.74285
           3           -1.19736   2.57668   1.28478   0.01533   1.74404
           4           -1.19738   2.57672   1.28481   0.01538   1.74524
           5           -1.19741   2.57675   1.28484   0.01543   1.74643
           6           -1.19744   2.57678   1.28487   0.01549   1.74761
           7           -1.19746   2.57682   1.28489   0.01554   1.74879
           8           -1.19749   2.57685   1.28492   0.01559   1.74997
           9           -1.19752   2.57689   1.28495   0.01565   1.75114
           10          -1.19754   2.57692   1.28497   0.01570   1.75231
           11          -1.19757   2.57695   1.28500   0.01575   1.75347
           12          -1.19759   2.57699   1.28503   0.01581   1.75463
           13          -1.19762   2.57702   1.28505   0.01586   1.75579
           14          -1.19764   2.57705   1.28507   0.01592   1.75693
           15          -1.19766   2.57709   1.28509   0.01598   1.75805
           16          -1.19772   2.57716   1.28516   0.01610   1.76071
           17          -1.19779   2.57724   1.28522   0.01622   1.76340
           18          -1.19782   2.57727   1.28526   0.01627   1.76459
           19          -1.19785   2.57731   1.28529   0.01632   1.76576
           20          -1.19788   2.57734   1.28532   0.01638   1.76693
           21          -1.19792   2.57738   1.28535   0.01643   1.76809
           22          -1.19795   2.57741   1.28538   0.01649   1.76925
           23          -1.19798   2.57744   1.28541   0.01655   1.77041
           24          -1.19801   2.57748   1.28544   0.01661   1.77157
           25          -1.19804   2.57751   1.28547   0.01667   1.77272
           26          -1.19807   2.57755   1.28550   0.01673   1.77388
           27          -1.19810   2.57758   1.28553   0.01679   1.77504
           28          -1.19813   2.57762   1.28556   0.01685   1.77620
           29          -1.19816   2.57765   1.28559   0.01692   1.77736
           30          -1.19819   2.57769   1.28562   0.01699   1.77853
           31          -1.19822   2.57772   1.28565   0.01705   1.77969
                          Z8
           1            0.21788
           2            0.21803
           3            0.21819
           4            0.21834
           5            0.21849
           6            0.21864
           7            0.21879
           8            0.21895
           9            0.21910
           10           0.21925
           11           0.21940
           12           0.21956
           13           0.21971
           14           0.21987
           15           0.22003
           16           0.22037
           17           0.22069
           18           0.22081
           19           0.22093
           20           0.22106
           21           0.22119
           22           0.22132
           23           0.22145
           24           0.22157
           25           0.22170
           26           0.22182
           27           0.22194
           28           0.22206
           29           0.22217
           30           0.22229
           31           0.22240
 ----------------------------------------------------------------------
 Total number of gradient calculations:   38
 Total number of points:   30
 Average number of gradient calculations:   1.26667
 ----------------------------------------------------------------------
 IRC-IRC-IRC-IRC-IRC-IRC-IRC-IRC-IRC-IRC-IRC-IRC-IRC-IRC-IRC-IRC-IRC-IRC
 ------------------------------------------------------------------------
                         Z-MATRIX (ANGSTROMS AND DEGREES)
 CD Cent Atom  N1     Length/X     N2    Alpha/Y     N3     Beta/Z      J
 ------------------------------------------------------------------------
   1   1  C     0   0.003828         -0.061588          0.001313
   2   2  H     0   0.006215          0.083683          1.085210
   3   3  H     0   0.920173          0.012419         -0.566882
   4   4  H     0  -0.925498         -0.074709         -0.544325
   5   5  O     0  -0.009398         -1.793094          0.339191
   6   6  H     0   0.869320         -1.992398          0.741318
   7   7  Cu    0  -1.198223          2.577723          1.285646
   8   8  O     0   0.017054          1.779693          0.222402
 ------------------------------------------------------------------------
                         Z-Matrix orientation:                         
 ---------------------------------------------------------------------
 Center     Atomic     Atomic              Coordinates (Angstroms)
 Number     Number      Type              X           Y           Z
 ---------------------------------------------------------------------
    1          6             0        0.003828   -0.061588    0.001313
    2          1             0        0.006215    0.083683    1.085210
    3          1             0        0.920173    0.012419   -0.566882
    4          1             0       -0.925498   -0.074709   -0.544325
    5          8             0       -0.009398   -1.793094    0.339191
    6          1             0        0.869320   -1.992398    0.741318
    7         29             0       -1.198223    2.577723    1.285646
    8          8             0        0.017054    1.779693    0.222402
 ---------------------------------------------------------------------
                    Distance matrix (angstroms):
                    1          2          3          4          5
     1  C    0.000000
     2  H    1.093591   0.000000
     3  H    1.080746   1.889393   0.000000
     4  H    1.077748   1.883762   1.847865   0.000000
     5  O    1.764214   2.019674   2.223724   2.138385   0.000000
     6  H    2.241587   2.274495   2.394424   2.924343   0.986698
     7  Cu   3.171813   2.776883   3.807919   3.233970   4.627432
     8  O    1.854554   1.902894   2.135848   2.216998   3.574794
                    6          7          8
     6  H    0.000000
     7  Cu   5.045497   0.000000
     8  O    3.901833   1.801177   0.000000
                           Interatomic angles:
       H2-C1-H3=120.6729       H2-C1-H4=120.3504       H3-C1-H4=117.7607
       H2-H4-H3= 60.8289       H2-C1-O5= 86.593        H3-C1-O5=100.0352
       H3-H2-O5= 69.2499       H4-C1-O5= 94.5051       H4-H2-O5= 66.3291
       H3-H4-O5= 67.3584       H2-C1-H6= 77.6654       H3-C1-H6= 84.5586
       H3-H2-H6= 69.5008       H4-C1-H6=119.3131       H4-H2-H6= 88.8626
       H4-H3-H6= 86.1376       C1-O5-H6=105.6418       H2-O5-H6= 91.735 
       H3-O5-H6= 87.5805       H4-O5-H6=135.4165      C1-H2-Cu7=100.9471
      H3-H2-Cu7=107.8667      H4-H2-Cu7= 85.6086      O5-H2-Cu7=149.0824
      H6-H2-Cu7=174.4422       H2-C1-O8= 75.5189       H3-C1-O8= 89.3492
       H3-H2-O8= 68.5549       H4-C1-O8= 94.5076       H4-H2-O8= 71.6713
       H4-H3-O8= 67.1802       O5-C1-O8=162.1119       O5-H2-O8=131.3595
       O5-H3-O8=110.1507       O5-H4-O8=110.3121       H6-C1-O8=144.3984
       H6-H2-O8=137.9716       H6-H3-O8=118.8108       H6-H4-O8= 97.7897
      C1-O8-Cu7=120.3612      H2-O8-Cu7= 97.0879      H3-O8-Cu7=150.4633
      H4-O8-Cu7=106.732 
 Symmetry turned off by external request.
 Stoichiometry    CH4CuO2(2)
 Framework group  C1[X(CH4CuO2)]
 Deg. of freedom    18
 Full point group                 C1
 Rotational constants (GHZ):     17.5143922      1.4529193      1.3637717

 **********************************************************************

            Population analysis using the SCF density.

 **********************************************************************

 Alpha  occ. eigenvalues --  -19.14992 -19.11019 -10.22238  -4.33397  -2.84838
 Alpha  occ. eigenvalues --   -2.84055  -2.83556  -0.94004  -0.91367  -0.67059
 Alpha  occ. eigenvalues --   -0.45373  -0.44699  -0.40412  -0.36465  -0.35136
 Alpha  occ. eigenvalues --   -0.33303  -0.30907  -0.30900  -0.30657  -0.27158
 Alpha  occ. eigenvalues --   -0.25575  -0.25076  -0.24187
 Alpha virt. eigenvalues --   -0.11801  -0.01270  -0.00653   0.02148   0.07393
 Alpha virt. eigenvalues --    0.08946   0.09152   0.13264   0.15542   0.17751
 Alpha virt. eigenvalues --    0.18908   0.19311   0.49170   0.57523   0.58017
 Alpha virt. eigenvalues --    0.69286   0.77382   0.77888   0.78722   0.79674
 Alpha virt. eigenvalues --    0.86253   0.89186   0.90549   0.92220   0.98425
 Alpha virt. eigenvalues --    1.00027   1.04817   1.08441   1.10993   1.17672
 Alpha virt. eigenvalues --    1.20801   1.44484   1.57091   1.60195   1.79560
 Alpha virt. eigenvalues --    1.93443   2.17261   2.21859   2.25877
  Beta  occ. eigenvalues --  -19.13009 -19.10248 -10.22290  -4.32959  -2.84140
  Beta  occ. eigenvalues --   -2.83528  -2.83356  -0.92086  -0.86118  -0.66167
  Beta  occ. eigenvalues --   -0.44357  -0.43724  -0.39022  -0.34861  -0.32792
  Beta  occ. eigenvalues --   -0.31739  -0.30719  -0.30718  -0.28472  -0.24375
  Beta  occ. eigenvalues --   -0.23515  -0.23151
  Beta virt. eigenvalues --   -0.11782  -0.11239  -0.01133  -0.00635   0.02403
  Beta virt. eigenvalues --    0.08315   0.08843   0.09394   0.13465   0.16323
  Beta virt. eigenvalues --    0.17841   0.19054   0.19744   0.49796   0.57771
  Beta virt. eigenvalues --    0.58184   0.69184   0.77310   0.77889   0.79199
  Beta virt. eigenvalues --    0.80618   0.86626   0.89536   0.91234   0.93155
  Beta virt. eigenvalues --    0.99333   1.00608   1.06070   1.10021   1.12948
  Beta virt. eigenvalues --    1.18617   1.22695   1.45581   1.58217   1.60989
  Beta virt. eigenvalues --    1.79175   1.94109   2.17094   2.22239   2.26097
          Condensed to atoms (all electrons):
              1          2          3          4          5          6
     1  C    5.006240   0.359918   0.377200   0.383073   0.131219  -0.024705
     2  H    0.359918   0.501104  -0.020953  -0.021886  -0.028143   0.001918
     3  H    0.377200  -0.020953   0.506177  -0.024042  -0.023017  -0.001691
     4  H    0.383073  -0.021886  -0.024042   0.488106  -0.024029   0.003661
     5  O    0.131219  -0.028143  -0.023017  -0.024029   8.351262   0.192055
     6  H   -0.024705   0.001918  -0.001691   0.003661   0.192055   0.505291
     7  Cu  -0.010469   0.013848   0.005652  -0.000523   0.000304  -0.000754
     8  O    0.029309  -0.025570  -0.023149  -0.021104   0.001497  -0.000353
              7          8
     1  C   -0.010469   0.029309
     2  H    0.013848  -0.025570
     3  H    0.005652  -0.023149
     4  H   -0.000523  -0.021104
     5  O    0.000304   0.001497
     6  H   -0.000754  -0.000353
     7  Cu  18.414536   0.211206
     8  O    0.211206   8.306338
 Mulliken atomic charges:
              1
     1  C   -0.251786
     2  H    0.219764
     3  H    0.203823
     4  H    0.216744
     5  O   -0.601150
     6  H    0.324578
     7  Cu   0.366201
     8  O   -0.478174
 Sum of Mulliken charges=   0.00000
 Atomic charges with hydrogens summed into heavy atoms:
              1
     1  C    0.388544
     2  H    0.000000
     3  H    0.000000
     4  H    0.000000
     5  O   -0.276572
     6  H    0.000000
     7  Cu   0.366201
     8  O   -0.478174
 Sum of Mulliken charges=   0.00000
          Atomic-Atomic Spin Densities.
              1          2          3          4          5          6
     1  C   -0.050919   0.040591   0.004232   0.002827  -0.025119   0.000473
     2  H    0.040591   0.070901   0.001286   0.000494  -0.020043   0.001198
     3  H    0.004232   0.001286   0.000542   0.000244  -0.001601   0.000227
     4  H    0.002827   0.000494   0.000244   0.000095  -0.000428  -0.000065
     5  O   -0.025119  -0.020043  -0.001601  -0.000428   0.337918  -0.000986
     6  H    0.000473   0.001198   0.000227  -0.000065  -0.000986  -0.010868
     7  Cu   0.002838   0.000166  -0.000063   0.000792  -0.000783   0.000212
     8  O   -0.039273  -0.034365  -0.001723  -0.000808   0.001970  -0.000101
              7          8
     1  C    0.002838  -0.039273
     2  H    0.000166  -0.034365
     3  H   -0.000063  -0.001723
     4  H    0.000792  -0.000808
     5  O   -0.000783   0.001970
     6  H    0.000212  -0.000101
     7  Cu  -0.027602  -0.023250
     8  O   -0.023250   0.862057
 Mulliken atomic spin densities:
              1
     1  C   -0.064351
     2  H    0.060227
     3  H    0.003144
     4  H    0.003149
     5  O    0.290926
     6  H   -0.009911
     7  Cu  -0.047690
     8  O    0.764507
 Sum of Mulliken spin densities=   1.00000
 Electronic spatial extent (au):  <R**2>=   937.2588
 Charge=     0.0000 electrons
 Dipole moment (field-independent basis, Debye):
    X=    -1.2860    Y=     3.3716    Z=     2.5411  Tot=     4.4135
 Quadrupole moment (field-independent basis, Debye-Ang):
   XX=   -25.4235   YY=   -27.0579   ZZ=   -25.9964
   XY=   -11.5267   XZ=    -3.4089   YZ=     6.4895
 Traceless Quadrupole moment (field-independent basis, Debye-Ang):
   XX=     0.7358   YY=    -0.8987   ZZ=     0.1629
   XY=   -11.5267   XZ=    -3.4089   YZ=     6.4895
 Octapole moment (field-independent basis, Debye-Ang**2):
  XXX=    35.8315  YYY=   -50.4716  ZZZ=   -49.5059  XYY=    -3.4741
  XXY=   -20.1395  XXZ=   -12.2616  XZZ=     7.3518  YZZ=   -17.8227
  YYZ=     4.0124  XYZ=   -16.1047
 Hexadecapole moment (field-independent basis, Debye-Ang**3):
 XXXX=  -130.1872 YYYY=  -630.6164 ZZZZ=  -151.8762 XXXY=    90.0630
 XXXZ=    42.9634 YYYX=    27.5857 YYYZ=   -51.4799 ZZZX=    42.0078
 ZZZY=   -92.8735 XXYY=  -107.4108 XXZZ=   -38.4200 YYZZ=  -112.7739
 XXYZ=   -18.8514 YYXZ=   -15.6802 ZZXY=    13.9441
 N-N= 1.591463016517D+02 E-N=-1.248981001632D+03  KE= 3.173710767705D+02
                          Isotropic Fermi Contact Couplings
        Atom                 a.u.       MegaHertz       Gauss      10(-4) cm-1
     1  C(13)              0.03843      43.20770      15.41758      14.41254
     2  H(1)               0.04313     192.79198      68.79297      64.30848
     3  H(1)               0.00110       4.91367       1.75332       1.63902
     4  H(1)               0.00109       4.85516       1.73244       1.61951
     5  O(17)              0.02812     -17.04433      -6.08184      -5.68538
     6  H(1)              -0.00497     -22.22438      -7.93021      -7.41326
     7  Cu(63)            -0.00003      -0.03160      -0.01128      -0.01054
     8  O(17)              0.10869     -65.88856     -23.51068     -21.97806
 --------------------------------------------------------
       Center         ----  Spin Dipole Couplings  ----
                      3XX-RR        3YY-RR        3ZZ-RR
 --------------------------------------------------------
     1   Atom        0.005343     -0.097985      0.092642
     2   Atom       -0.021470      0.012593      0.008877
     3   Atom       -0.010575      0.011462     -0.000887
     4   Atom       -0.010907      0.010497      0.000410
     5   Atom       -0.553408      0.987634     -0.434225
     6   Atom        0.033836     -0.010598     -0.023238
     7   Atom       -0.047620      0.086659     -0.039039
     8   Atom       -1.149757      1.264869     -0.115112
 --------------------------------------------------------
                        XY            XZ            YZ
 --------------------------------------------------------
     1   Atom        0.001060     -0.005594      0.019396
     2   Atom        0.000792      0.001032     -0.005649
     3   Atom       -0.006870     -0.006108      0.005968
     4   Atom        0.006759      0.006160      0.005151
     5   Atom        0.118483      0.052226      0.508382
     6   Atom       -0.017430      0.031455     -0.001938
     7   Atom       -0.155837     -0.233037     -0.000953
     8   Atom        0.419676     -0.469582     -1.627411
 --------------------------------------------------------


 ---------------------------------------------------------------------------------
              Anisotropic Spin Dipole Couplings in Principal Axis System
 ---------------------------------------------------------------------------------

       Atom             a.u.   MegaHertz   Gauss  10(-4) cm-1        Axes

              Baa    -0.1000   -13.414    -4.786    -4.474 -0.0154  0.9948 -0.1006
     1 C(13)  Bbb     0.0050     0.676     0.241     0.225  0.9980  0.0214  0.0590
              Bcc     0.0949    12.738     4.545     4.249 -0.0608  0.0995  0.9932
 
              Baa    -0.0215   -11.490    -4.100    -3.833  0.9988 -0.0297 -0.0394
     2 H(1)   Bbb     0.0049     2.589     0.924     0.864  0.0493  0.5855  0.8092
              Bcc     0.0167     8.901     3.176     2.969  0.0010  0.8101 -0.5862
 
              Baa    -0.0141    -7.540    -2.691    -2.515  0.9218  0.1657  0.3504
     3 H(1)   Bbb    -0.0025    -1.357    -0.484    -0.452 -0.2362 -0.4767  0.8467
              Bcc     0.0167     8.897     3.175     2.968 -0.3074  0.8633  0.4003
 
              Baa    -0.0144    -7.679    -2.740    -2.561  0.9284 -0.1855 -0.3218
     4 H(1)   Bbb    -0.0011    -0.607    -0.217    -0.202  0.1964 -0.4901  0.8493
              Bcc     0.0155     8.286     2.957     2.764  0.3153  0.8517  0.4186
 
              Baa    -0.6020    43.559    15.543    14.530 -0.3271 -0.2657  0.9069
     5 O(17)  Bbb    -0.5584    40.405    14.418    13.478  0.9420 -0.1678  0.2906
              Bcc     1.1604   -83.964   -29.961   -28.007  0.0749  0.9494  0.3051
 
              Baa    -0.0383   -20.443    -7.294    -6.819 -0.4330 -0.2111  0.8763
     6 H(1)   Bbb    -0.0139    -7.431    -2.651    -2.479  0.1467  0.9427  0.2996
              Bcc     0.0522    27.873     9.946     9.298  0.8894 -0.2583  0.3773
 
              Baa    -0.3100   -43.884   -15.659   -14.638  0.7258  0.2867  0.6253
     7 Cu(63) Bbb     0.0446     6.310     2.252     2.105  0.2120  0.7715 -0.5998
              Bcc     0.2654    37.574    13.407    12.533  0.6544 -0.5679 -0.4992
 
              Baa    -1.3834   100.099    35.718    33.389  0.7603  0.2483  0.6002
     8 O(17)  Bbb    -1.0626    76.887    27.435    25.647  0.6276 -0.5190 -0.5803
              Bcc     2.4459  -176.985   -63.153   -59.036  0.1674  0.8179 -0.5504
 

 ---------------------------------------------------------------------------------


 This type of calculation cannot be archived.


 The mind is not a vessel to be filled but a fire to be kindled.
                                  -- Plutarch
 Job cpu time:  0 days  0 hours 37 minutes 28.6 seconds.
 File lengths (MBytes):  RWF=     25 Int=      0 D2E=      0 Chk=     16 Scr=      1
 Normal termination of Gaussian 03 at Tue Sep 30 17:31:36 2008.
