 Entering Gaussian System, Link 0=g09
 Input=CuO.com
 Output=CuO.log
 Initial command:
 /Applications/g09/l1.exe "/Users/Ceron/Scratch/Gau-2116.inp" -scrdir="/Users/Ceron/Scratch/"
 Entering Link 1 = /Applications/g09/l1.exe PID=      2117.
  
 Copyright (c) 1988,1990,1992,1993,1995,1998,2003,2009,2013,
            Gaussian, Inc.  All Rights Reserved.
  
 This is part of the Gaussian(R) 09 program.  It is based on
 the Gaussian(R) 03 system (copyright 2003, Gaussian, Inc.),
 the Gaussian(R) 98 system (copyright 1998, Gaussian, Inc.),
 the Gaussian(R) 94 system (copyright 1995, Gaussian, Inc.),
 the Gaussian 92(TM) system (copyright 1992, Gaussian, Inc.),
 the Gaussian 90(TM) system (copyright 1990, Gaussian, Inc.),
 the Gaussian 88(TM) system (copyright 1988, Gaussian, Inc.),
 the Gaussian 86(TM) system (copyright 1986, Carnegie Mellon
 University), and the Gaussian 82(TM) system (copyright 1983,
 Carnegie Mellon University). Gaussian is a federally registered
 trademark of Gaussian, Inc.
  
 This software contains proprietary and confidential information,
 including trade secrets, belonging to Gaussian, Inc.
  
 This software is provided under written license and may be
 used, copied, transmitted, or stored only in accord with that
 written license.
  
 The following legend is applicable only to US Government
 contracts under FAR:
  
                    RESTRICTED RIGHTS LEGEND
  
 Use, reproduction and disclosure by the US Government is
 subject to restrictions as set forth in subparagraphs (a)
 and (c) of the Commercial Computer Software - Restricted
 Rights clause in FAR 52.227-19.
  
 Gaussian, Inc.
 340 Quinnipiac St., Bldg. 40, Wallingford CT 06492
  
  
 ---------------------------------------------------------------
 Warning -- This program may not be used in any manner that
 competes with the business of Gaussian, Inc. or will provide
 assistance to any competitor of Gaussian, Inc.  The licensee
 of this program is prohibited from giving any competitor of
 Gaussian, Inc. access to this program.  By using this program,
 the user acknowledges that Gaussian, Inc. is engaged in the
 business of creating and licensing software in the field of
 computational chemistry and represents and warrants to the
 licensee that it is not a competitor of Gaussian, Inc. and that
 it will not use this program in any manner prohibited above.
 ---------------------------------------------------------------
  

 Cite this work as:
 Gaussian 09, Revision D.01,
 M. J. Frisch, G. W. Trucks, H. B. Schlegel, G. E. Scuseria, 
 M. A. Robb, J. R. Cheeseman, G. Scalmani, V. Barone, B. Mennucci, 
 G. A. Petersson, H. Nakatsuji, M. Caricato, X. Li, H. P. Hratchian, 
 A. F. Izmaylov, J. Bloino, G. Zheng, J. L. Sonnenberg, M. Hada, 
 M. Ehara, K. Toyota, R. Fukuda, J. Hasegawa, M. Ishida, T. Nakajima, 
 Y. Honda, O. Kitao, H. Nakai, T. Vreven, J. A. Montgomery, Jr., 
 J. E. Peralta, F. Ogliaro, M. Bearpark, J. J. Heyd, E. Brothers, 
 K. N. Kudin, V. N. Staroverov, T. Keith, R. Kobayashi, J. Normand, 
 K. Raghavachari, A. Rendell, J. C. Burant, S. S. Iyengar, J. Tomasi, 
 M. Cossi, N. Rega, J. M. Millam, M. Klene, J. E. Knox, J. B. Cross, 
 V. Bakken, C. Adamo, J. Jaramillo, R. Gomperts, R. E. Stratmann, 
 O. Yazyev, A. J. Austin, R. Cammi, C. Pomelli, J. W. Ochterski, 
 R. L. Martin, K. Morokuma, V. G. Zakrzewski, G. A. Voth, 
 P. Salvador, J. J. Dannenberg, S. Dapprich, A. D. Daniels, 
 O. Farkas, J. B. Foresman, J. V. Ortiz, J. Cioslowski, 
 and D. J. Fox, Gaussian, Inc., Wallingford CT, 2013.
 
 ******************************************
 Gaussian 09:  IA32M-G09RevD.01 24-Apr-2013
                19-Dec-2013 
 ******************************************
 -----------------------------------------------
 # b3lyp/gen opt pseudo=read scf=maxcyc=500 test
 -----------------------------------------------
 1/14=-1,18=20,19=15,26=3,38=1/1,3;
 2/9=110,12=2,17=6,18=5,40=1/2;
 3/5=7,11=2,16=1,17=8,25=1,30=1,71=1,74=-5/1,2,3;
 4//1;
 5/5=2,7=500,38=5/2;
 6/7=2,8=2,9=2,10=2,28=1/1;
 7//1,2,3,16;
 1/14=-1,18=20,19=15,26=3/3(2);
 2/9=110/2;
 99//99;
 2/9=110/2;
 3/5=7,6=1,11=2,16=1,17=8,25=1,30=1,71=1,74=-5,82=7/1,2,3;
 4/5=5,16=3,69=1/1;
 5/5=2,7=500,38=5/2;
 7//1,2,3,16;
 1/14=-1,18=20,19=15,26=3/3(-5);
 2/9=110/2;
 6/7=2,8=2,9=2,10=2,19=2,28=1/1;
 99/9=1/99;
 ---
 CuO
 ---
 Symbolic Z-matrix:
 Charge =  0 Multiplicity = 2
 Cu                   -2.92341  -0.14513   0.06023 
 O                    -2.03141   0.09015   1.34377 
 

 GradGradGradGradGradGradGradGradGradGradGradGradGradGradGradGradGradGrad
 Berny optimization.
 Initialization pass.
                           ----------------------------
                           !    Initial Parameters    !
                           ! (Angstroms and Degrees)  !
 --------------------------                            --------------------------
 ! Name  Definition              Value          Derivative Info.                !
 --------------------------------------------------------------------------------
 ! R1    R(1,2)                  1.5807         estimate D2E/DX2                !
 --------------------------------------------------------------------------------
 Trust Radius=3.00D-01 FncErr=1.00D-07 GrdErr=1.00D-06
 Number of steps in this run=     20 maximum allowed number of steps=    100.
 GradGradGradGradGradGradGradGradGradGradGradGradGradGradGradGradGradGrad

                          Input orientation:                          
 ---------------------------------------------------------------------
 Center     Atomic      Atomic             Coordinates (Angstroms)
 Number     Number       Type             X           Y           Z
 ---------------------------------------------------------------------
      1         29           0       -2.923413   -0.145133    0.060232
      2          8           0       -2.031407    0.090147    1.343772
 ---------------------------------------------------------------------
 Stoichiometry    CuO(2)
 Framework group  C*V[C*(OCu)]
 Deg. of freedom     1
 Full point group                 C*V     NOp   4
 Largest Abelian subgroup         C2V     NOp   4
 Largest concise Abelian subgroup C1      NOp   1
                         Standard orientation:                         
 ---------------------------------------------------------------------
 Center     Atomic      Atomic             Coordinates (Angstroms)
 Number     Number       Type             X           Y           Z
 ---------------------------------------------------------------------
      1         29           0        0.000000    0.000000    0.341766
      2          8           0        0.000000    0.000000   -1.238901
 ---------------------------------------------------------------------
 Rotational constants (GHZ):      0.0000000     15.8603015     15.8603015
 General basis read from cards:  (5D, 7F)
 ======================================================================================================
                                       Pseudopotential Parameters
 ======================================================================================================
  Center     Atomic      Valence      Angular      Power
  Number     Number     Electrons     Momentum     of R      Exponent        Coefficient   SO-Coeffient
 ======================================================================================================
    1         29           19
                                      D and up 
                                                     1      511.9951763      -10.00000000    0.00000000
                                                     2       93.2801074      -72.55482820    0.00000000
                                                     2       23.2206669      -12.74502310    0.00000000
                                      S - D
                                                     0      173.1180854        3.00000000    0.00000000
                                                     1      185.2419886       23.83518250    0.00000000
                                                     2       73.1517847      473.89304880    0.00000000
                                                     2       14.6884157      157.63458230    0.00000000
                                      P - D
                                                     0      100.7191369        5.00000000    0.00000000
                                                     1      130.8345665        6.49909360    0.00000000
                                                     2       53.8683720      351.46053950    0.00000000
                                                     2       14.0989469       85.50160360    0.00000000
    2          8
                                   No pseudopotential on this center.
 ======================================================================================================
 There are    20 symmetry adapted cartesian basis functions of A1  symmetry.
 There are     3 symmetry adapted cartesian basis functions of A2  symmetry.
 There are     8 symmetry adapted cartesian basis functions of B1  symmetry.
 There are     8 symmetry adapted cartesian basis functions of B2  symmetry.
 There are    17 symmetry adapted basis functions of A1  symmetry.
 There are     3 symmetry adapted basis functions of A2  symmetry.
 There are     8 symmetry adapted basis functions of B1  symmetry.
 There are     8 symmetry adapted basis functions of B2  symmetry.
    36 basis functions,    80 primitive gaussians,    39 cartesian basis functions
    14 alpha electrons       13 beta electrons
       nuclear repulsion energy        50.8867047702 Hartrees.
 NAtoms=    2 NActive=    2 NUniq=    2 SFac= 1.00D+00 NAtFMM=   60 NAOKFM=F Big=F
 Integral buffers will be    262144 words long.
 Raffenetti 2 integral format.
 Two-electron integral symmetry is turned on.
 One-electron integrals computed using PRISM.
   1 Symmetry operations used in ECPInt.
 ECPInt:  NShTT=      78 NPrTT=     439 LenC2=      79 LenP2D=     419.
 LDataN:  DoStor=T MaxTD1= 4 Len=   56
 NBasis=    36 RedAO= T EigKep=  9.38D-02  NBF=    17     3     8     8
 NBsUse=    36 1.00D-06 EigRej= -1.00D+00 NBFU=    17     3     8     8
 ExpMin= 2.40D-02 ExpMax= 5.48D+03 ExpMxC= 8.25D+02 IAcc=3 IRadAn=         5 AccDes= 0.00D+00
 Harris functional with IExCor=  402 and IRadAn=       5 diagonalized for initial guess.
 HarFok:  IExCor=  402 AccDes= 0.00D+00 IRadAn=         5 IDoV= 1 UseB2=F ITyADJ=14
 ICtDFT=  3500011 ScaDFX=  1.000000  1.000000  1.000000  1.000000
 FoFCou: FMM=F IPFlag=           0 FMFlag=      100000 FMFlg1=           0
         NFxFlg=           0 DoJE=T BraDBF=F KetDBF=T FulRan=T
         wScrn=  0.000000 ICntrl=     500 IOpCl=  0 I1Cent=   200000004 NGrid=           0
         NMat0=    1 NMatS0=      1 NMatT0=    0 NMatD0=    1 NMtDS0=    0 NMtDT0=    0
 Petite list used in FoFCou.
 Initial guess orbital symmetries:
 Alpha Orbitals:
       Occupied  (SG) (SG) (SG) (PI) (PI) (SG) (SG) (PI) (PI) (SG)
                 (DLTA) (DLTA) (PI) (PI)
       Virtual   (SG) (PI) (PI) (SG) (PI) (PI) (SG) (SG) (DLTA)
                 (DLTA) (PI) (PI) (PI) (PI) (SG) (SG) (SG) (DLTA)
                 (DLTA) (PI) (PI) (SG)
 Beta  Orbitals:
       Occupied  (SG) (SG) (SG) (PI) (PI) (SG) (SG) (PI) (PI) (SG)
                 (DLTA) (DLTA) (PI)
       Virtual   (PI) (SG) (PI) (PI) (SG) (PI) (PI) (SG) (SG) (DLTA)
                 (DLTA) (PI) (PI) (PI) (PI) (SG) (SG) (SG) (DLTA)
                 (DLTA) (PI) (PI) (SG)
 Initial guess <Sx>= 0.0000 <Sy>= 0.0000 <Sz>= 0.5000 <S**2>= 0.7500 S= 0.5000
 Keep R1 and R2 ints in memory in symmetry-blocked form, NReq=1339194.
 Requested convergence on RMS density matrix=1.00D-08 within 500 cycles.
 Requested convergence on MAX density matrix=1.00D-06.
 Requested convergence on             energy=1.00D-06.
 No special actions if energy rises.
 EnCoef did   100 forward-backward iterations
 EnCoef did   100 forward-backward iterations
 EnCoef did   100 forward-backward iterations
 SCF Done:  E(UB3LYP) =  -271.258036261     A.U. after   18 cycles
            NFock= 18  Conv=0.17D-08     -V/T= 2.3421
 <Sx>= 0.0000 <Sy>= 0.0000 <Sz>= 0.5000 <S**2>= 0.7636 S= 0.5068
 <L.S>= 0.000000000000E+00
 Annihilation of the first spin contaminant:
 S**2 before annihilation     0.7636,   after     0.7501

 **********************************************************************

            Population analysis using the SCF density.

 **********************************************************************

 Orbital symmetries:
 Alpha Orbitals:
       Occupied  (SG) (SG) (SG) (PI) (PI) (SG) (?A) (?B) (?A) (?B)
                 (?B) (?A) (?B) (?A)
       Virtual   (SG) (PI) (PI) (SG) (PI) (PI) (SG) (SG) (DLTA)
                 (DLTA) (?A) (?A) (?A) (?A) (SG) (SG) (?B) (?B)
                 (?B) (PI) (PI) (?B)
 Beta  Orbitals:
       Occupied  (SG) (SG) (SG) (PI) (PI) (SG) (?A) (?B) (?B) (?A)
                 (?A) (?A) (?B)
       Virtual   (?B) (SG) (?B) (?B) (SG) (?B) (?B) (SG) (SG) (DLTA)
                 (DLTA) (PI) (PI) (PI) (PI) (SG) (SG) (SG) (?C)
                 (?C) (PI) (PI) (?C)
 Unable to determine electronic state:  an orbital has unidentified symmetry.
 Alpha  occ. eigenvalues --  -19.15937  -4.37889  -2.90208  -2.88546  -2.86914
 Alpha  occ. eigenvalues --   -0.92469  -0.41841  -0.41078  -0.38742  -0.34073
 Alpha  occ. eigenvalues --   -0.34073  -0.30222  -0.26677  -0.25918
 Alpha virt. eigenvalues --   -0.11105  -0.00109   0.00323   0.02839   0.09439
 Alpha virt. eigenvalues --    0.09895   0.14427   0.43192   0.76520   0.76523
 Alpha virt. eigenvalues --    0.80198   0.82077   0.98862   1.02114   1.05808
 Alpha virt. eigenvalues --    1.14356   1.73992   1.81214   1.81735   1.94090
 Alpha virt. eigenvalues --    1.97726   1.97985
  Beta  occ. eigenvalues --  -19.13720  -4.36644  -2.88359  -2.86887  -2.86457
  Beta  occ. eigenvalues --   -0.86011  -0.39029  -0.37740  -0.34959  -0.33509
  Beta  occ. eigenvalues --   -0.33491  -0.25224  -0.23930
  Beta virt. eigenvalues --   -0.12820  -0.10569   0.00397   0.01157   0.02992
  Beta virt. eigenvalues --    0.09802   0.10053   0.14672   0.44038   0.76526
  Beta virt. eigenvalues --    0.76528   0.82355   0.83089   1.03313   1.05387
  Beta virt. eigenvalues --    1.07043   1.16252   1.76886   1.86429   1.86855
  Beta virt. eigenvalues --    1.98768   1.99113   1.99878
          Condensed to atoms (all electrons):
               1          2
     1  Cu  18.273396   0.263633
     2  O    0.263633   8.199339
          Atomic-Atomic Spin Densities.
               1          2
     1  Cu   0.138363  -0.038626
     2  O   -0.038626   0.938888
 Mulliken charges and spin densities:
               1          2
     1  Cu   0.462971   0.099737
     2  O   -0.462971   0.900263
 Sum of Mulliken charges =   0.00000   1.00000
 Mulliken charges and spin densities with hydrogens summed into heavy atoms:
               1          2
     1  Cu   0.462971   0.099737
     2  O   -0.462971   0.900263
 Electronic spatial extent (au):  <R**2>=             92.7727
 Charge=              0.0000 electrons
 Dipole moment (field-independent basis, Debye):
    X=              0.0000    Y=              0.0000    Z=              3.8927  Tot=              3.8927
 Quadrupole moment (field-independent basis, Debye-Ang):
   XX=            -18.7753   YY=            -17.1888   ZZ=            -19.1802
   XY=              0.0000   XZ=              0.0000   YZ=              0.0000
 Traceless Quadrupole moment (field-independent basis, Debye-Ang):
   XX=             -0.3938   YY=              1.1926   ZZ=             -0.7988
   XY=              0.0000   XZ=              0.0000   YZ=              0.0000
 Octapole moment (field-independent basis, Debye-Ang**2):
  XXX=              0.0000  YYY=              0.0000  ZZZ=             14.1866  XYY=              0.0000
  XXY=              0.0000  XXZ=              3.3945  XZZ=              0.0000  YZZ=              0.0000
  YYZ=              2.4869  XYZ=              0.0000
 Hexadecapole moment (field-independent basis, Debye-Ang**3):
 XXXX=            -21.4596 YYYY=            -17.2093 ZZZZ=            -81.4847 XXXY=              0.0000
 XXXZ=              0.0000 YYYX=              0.0000 YYYZ=              0.0000 ZZZX=              0.0000
 ZZZY=              0.0000 XXYY=             -6.4448 XXZZ=            -17.4337 YYZZ=            -15.1303
 XXYZ=              0.0000 YYXZ=              0.0000 ZZXY=              0.0000
 N-N= 5.088670477023D+01 E-N=-7.595754170401D+02  KE= 2.021115176072D+02
 Symmetry A1   KE= 1.194896345095D+02
 Symmetry A2   KE= 1.893037589451D+01
 Symmetry B1   KE= 3.363319911594D+01
 Symmetry B2   KE= 3.005830808719D+01
                          Isotropic Fermi Contact Couplings
        Atom                 a.u.       MegaHertz       Gauss      10(-4) cm-1
     1  Cu(63)            -0.00001      -0.00998      -0.00356      -0.00333
     2  O(17)              0.12402     -75.18265     -26.82704     -25.07823
 --------------------------------------------------------
       Center         ----  Spin Dipole Couplings  ----
                      3XX-RR        3YY-RR        3ZZ-RR
 --------------------------------------------------------
     1   Atom       -0.939164      0.328079      0.611085
     2   Atom       -1.547320      2.856258     -1.308938
 --------------------------------------------------------
                        XY            XZ            YZ
 --------------------------------------------------------
     1   Atom        0.000000      0.000000      0.000000
     2   Atom        0.000000      0.000000      0.000000
 --------------------------------------------------------


 ---------------------------------------------------------------------------------
              Anisotropic Spin Dipole Couplings in Principal Axis System
 ---------------------------------------------------------------------------------

       Atom             a.u.   MegaHertz   Gauss  10(-4) cm-1        Axes

              Baa    -0.9392  -132.968   -47.446   -44.353  1.0000  0.0000  0.0000
     1 Cu(63) Bbb     0.3281    46.450    16.574    15.494  0.0000  1.0000  0.0000
              Bcc     0.6111    86.518    30.872    28.859  0.0000  0.0000  1.0000
 
              Baa    -1.5473   111.963    39.951    37.347  1.0000  0.0000  0.0000
     2 O(17)  Bbb    -1.3089    94.714    33.796    31.593  0.0000  0.0000  1.0000
              Bcc     2.8563  -206.677   -73.747   -68.940  0.0000  1.0000  0.0000
 

 ---------------------------------------------------------------------------------

   4 Symmetry operations used in ECPInt.
 ECPInt:  NShTT=      78 NPrTT=     439 LenC2=      79 LenP2D=     419.
 LDataN:  DoStor=T MaxTD1= 5 Len=  102
 Calling FoFJK, ICntrl=      2127 FMM=F ISym2X=1 I1Cent= 0 IOpClX= 1 NMat=1 NMatS=1 NMatT=0.
 ***** Axes restored to original set *****
 -------------------------------------------------------------------
 Center     Atomic                   Forces (Hartrees/Bohr)
 Number     Number              X              Y              Z
 -------------------------------------------------------------------
      1       29          -0.062248845   -0.016419123   -0.089572158
      2        8           0.062248845    0.016419123    0.089572158
 -------------------------------------------------------------------
 Cartesian Forces:  Max     0.089572158 RMS     0.063685890

 GradGradGradGradGradGradGradGradGradGradGradGradGradGradGradGradGradGrad
 Berny optimization.
 FormGI is forming the generalized inverse of G from B-inverse, IUseBI=4.
 Internal  Forces:  Max     0.110307197 RMS     0.110307197
 Search for a local minimum.
 Step number   1 out of a maximum of   20
 All quantities printed in internal units (Hartrees-Bohrs-Radians)
 Mixed Optimization -- RFO/linear search
 Second derivative matrix not updated -- first step.
 The second derivative matrix:
                          R1
           R1           0.49913
 ITU=  0
     Eigenvalues ---    0.49913
 RFO step:  Lambda=-2.32907639D-02 EMin= 4.99134254D-01
 Linear search not attempted -- first point.
 Iteration  1 RMS(Cart)=  0.14142136 RMS(Int)=  0.01114455
 Iteration  2 RMS(Cart)=  0.00788039 RMS(Int)=  0.00000000
 Iteration  3 RMS(Cart)=  0.00000000 RMS(Int)=  0.00000000
 ClnCor:  largest displacement from symmetrization is 1.01D-15 for atom     2.
 Variable       Old X    -DE/DX   Delta X   Delta X   Delta X     New X
                                 (Linear)    (Quad)   (Total)
    R1        2.98703   0.11031   0.00000   0.21114   0.21114   3.19817
         Item               Value     Threshold  Converged?
 Maximum Force            0.110307     0.000450     NO 
 RMS     Force            0.110307     0.000300     NO 
 Maximum Displacement     0.085727     0.001800     NO 
 RMS     Displacement     0.149302     0.001200     NO 
 Predicted change in Energy=-1.216456D-02
 GradGradGradGradGradGradGradGradGradGradGradGradGradGradGradGradGradGrad

                          Input orientation:                          
 ---------------------------------------------------------------------
 Center     Atomic      Atomic             Coordinates (Angstroms)
 Number     Number       Type             X           Y           Z
 ---------------------------------------------------------------------
      1         29           0       -2.954940   -0.153449    0.014867
      2          8           0       -1.999880    0.098463    1.389137
 ---------------------------------------------------------------------
 Stoichiometry    CuO(2)
 Framework group  C*V[C*(OCu)]
 Deg. of freedom     1
 Full point group                 C*V     NOp   4
 Largest Abelian subgroup         C2V     NOp   4
 Largest concise Abelian subgroup C1      NOp   1
                         Standard orientation:                         
 ---------------------------------------------------------------------
 Center     Atomic      Atomic             Coordinates (Angstroms)
 Number     Number       Type             X           Y           Z
 ---------------------------------------------------------------------
      1         29           0        0.000000    0.000000    0.365924
      2          8           0        0.000000    0.000000   -1.326476
 ---------------------------------------------------------------------
 Rotational constants (GHZ):      0.0000000     13.8352253     13.8352253
 Basis read from rwf:  (5D, 7F)
 Pseudo-potential data read from rwf file.
 There are    20 symmetry adapted cartesian basis functions of A1  symmetry.
 There are     3 symmetry adapted cartesian basis functions of A2  symmetry.
 There are     8 symmetry adapted cartesian basis functions of B1  symmetry.
 There are     8 symmetry adapted cartesian basis functions of B2  symmetry.
 There are    17 symmetry adapted basis functions of A1  symmetry.
 There are     3 symmetry adapted basis functions of A2  symmetry.
 There are     8 symmetry adapted basis functions of B1  symmetry.
 There are     8 symmetry adapted basis functions of B2  symmetry.
    36 basis functions,    80 primitive gaussians,    39 cartesian basis functions
    14 alpha electrons       13 beta electrons
       nuclear repulsion energy        47.5271451534 Hartrees.
 NAtoms=    2 NActive=    2 NUniq=    2 SFac= 1.00D+00 NAtFMM=   60 NAOKFM=F Big=F
 Integral buffers will be    262144 words long.
 Raffenetti 2 integral format.
 Two-electron integral symmetry is turned on.
 One-electron integrals computed using PRISM.
   1 Symmetry operations used in ECPInt.
 ECPInt:  NShTT=      78 NPrTT=     439 LenC2=      79 LenP2D=     417.
 LDataN:  DoStor=T MaxTD1= 4 Len=   56
 NBasis=    36 RedAO= T EigKep=  9.95D-02  NBF=    17     3     8     8
 NBsUse=    36 1.00D-06 EigRej= -1.00D+00 NBFU=    17     3     8     8
 Initial guess from the checkpoint file:  "/Users/Ceron/Scratch/Gau-2117.chk"
 B after Tr=     0.000000    0.000000    0.000000
         Rot=    1.000000    0.000000    0.000000    0.000000 Ang=   0.00 deg.
 Initial guess orbital symmetries:
 Alpha Orbitals:
       Occupied  (SG) (SG) (SG) (PI) (PI) (SG) (?A) (?B) (?A) (?B)
                 (?B) (?A) (?B) (?A)
       Virtual   (SG) (SG) (SG) (?C) (DLTA) (?C) (?C) (?C) (SG)
                 (SG) (DLTA) (?C) (PI) (PI) (?D) (?D) (?D) (PI)
                 (PI) (?D) (?D) (?D)
 Beta  Orbitals:
       Occupied  (SG) (SG) (SG) (PI) (PI) (SG) (?A) (?B) (?B) (?A)
                 (?A) (?A) (?B)
       Virtual   (SG) (SG) (SG) (SG) (DLTA) (SG) (?C) (?C) (SG)
                 (SG) (DLTA) (?C) (?B) (?B) (?B) (?B) (?B) (?B)
                 (?B) (?B) (?B) (?B) (?B)
 Initial guess <Sx>= 0.0000 <Sy>= 0.0000 <Sz>= 0.5000 <S**2>= 0.7638 S= 0.5069
 ExpMin= 2.40D-02 ExpMax= 5.48D+03 ExpMxC= 8.25D+02 IAcc=3 IRadAn=         5 AccDes= 0.00D+00
 Harris functional with IExCor=  402 and IRadAn=       5 diagonalized for initial guess.
 HarFok:  IExCor=  402 AccDes= 0.00D+00 IRadAn=         5 IDoV= 1 UseB2=F ITyADJ=14
 ICtDFT=  3500011 ScaDFX=  1.000000  1.000000  1.000000  1.000000
 FoFCou: FMM=F IPFlag=           0 FMFlag=      100000 FMFlg1=           0
         NFxFlg=           0 DoJE=T BraDBF=F KetDBF=T FulRan=T
         wScrn=  0.000000 ICntrl=     500 IOpCl=  0 I1Cent=   200000004 NGrid=           0
         NMat0=    1 NMatS0=      1 NMatT0=    0 NMatD0=    1 NMtDS0=    0 NMtDT0=    0
 Petite list used in FoFCou.
 Keep R1 and R2 ints in memory in symmetry-blocked form, NReq=1339194.
 Requested convergence on RMS density matrix=1.00D-08 within 500 cycles.
 Requested convergence on MAX density matrix=1.00D-06.
 Requested convergence on             energy=1.00D-06.
 No special actions if energy rises.
 SCF Done:  E(UB3LYP) =  -271.272013463     A.U. after   13 cycles
            NFock= 13  Conv=0.41D-08     -V/T= 2.3415
 <Sx>= 0.0000 <Sy>= 0.0000 <Sz>= 0.5000 <S**2>= 0.7669 S= 0.5084
 <L.S>= 0.000000000000E+00
 Annihilation of the first spin contaminant:
 S**2 before annihilation     0.7669,   after     0.7501
   4 Symmetry operations used in ECPInt.
 ECPInt:  NShTT=      78 NPrTT=     439 LenC2=      79 LenP2D=     417.
 LDataN:  DoStor=T MaxTD1= 5 Len=  102
 Calling FoFJK, ICntrl=      2127 FMM=F ISym2X=1 I1Cent= 0 IOpClX= 1 NMat=1 NMatS=1 NMatT=0.
 ***** Axes restored to original set *****
 -------------------------------------------------------------------
 Center     Atomic                   Forces (Hartrees/Bohr)
 Number     Number              X              Y              Z
 -------------------------------------------------------------------
      1       29          -0.016949228   -0.004470629   -0.024388869
      2        8           0.016949228    0.004470629    0.024388869
 -------------------------------------------------------------------
 Cartesian Forces:  Max     0.024388869 RMS     0.017340509

 GradGradGradGradGradGradGradGradGradGradGradGradGradGradGradGradGradGrad
 Berny optimization.
 Using GEDIIS/GDIIS optimizer.
 Internal  Forces:  Max     0.030034643 RMS     0.030034643
 Search for a local minimum.
 Step number   2 out of a maximum of   20
 All quantities printed in internal units (Hartrees-Bohrs-Radians)
 Mixed Optimization -- RFO/linear search
 Update second derivatives using D2CorX and points    1    2
 DE= -1.40D-02 DEPred=-1.22D-02 R= 1.15D+00
 TightC=F SS=  1.41D+00  RLast= 2.11D-01 DXNew= 5.0454D-01 6.3343D-01
 Trust test= 1.15D+00 RLast= 2.11D-01 DXMaxT set to 5.05D-01
 The second derivative matrix:
                          R1
           R1           0.38018
 ITU=  1  0
 Use linear search instead of GDIIS.
     Eigenvalues ---    0.38018
 RFO step:  Lambda= 0.00000000D+00 EMin= 3.80178189D-01
 Quartic linear search produced a step of  0.66453.
 Iteration  1 RMS(Cart)=  0.09921516 RMS(Int)=  0.00000000
 Iteration  2 RMS(Cart)=  0.00000000 RMS(Int)=  0.00000000
 ClnCor:  largest displacement from symmetrization is 4.48D-16 for atom     2.
 Variable       Old X    -DE/DX   Delta X   Delta X   Delta X     New X
                                 (Linear)    (Quad)   (Total)
    R1        3.19817   0.03003   0.14031   0.00000   0.14031   3.33848
         Item               Value     Threshold  Converged?
 Maximum Force            0.030035     0.000450     NO 
 RMS     Force            0.030035     0.000300     NO 
 Maximum Displacement     0.056968     0.001800     NO 
 RMS     Displacement     0.099215     0.001200     NO 
 Predicted change in Energy=-4.718635D-04
 GradGradGradGradGradGradGradGradGradGradGradGradGradGradGradGradGradGrad

                          Input orientation:                          
 ---------------------------------------------------------------------
 Center     Atomic      Atomic             Coordinates (Angstroms)
 Number     Number       Type             X           Y           Z
 ---------------------------------------------------------------------
      1         29           0       -2.975890   -0.158975   -0.015279
      2          8           0       -1.978930    0.103989    1.419284
 ---------------------------------------------------------------------
 Stoichiometry    CuO(2)
 Framework group  C*V[C*(OCu)]
 Deg. of freedom     1
 Full point group                 C*V     NOp   4
 Largest Abelian subgroup         C2V     NOp   4
 Largest concise Abelian subgroup C1      NOp   1
                         Standard orientation:                         
 ---------------------------------------------------------------------
 Center     Atomic      Atomic             Coordinates (Angstroms)
 Number     Number       Type             X           Y           Z
 ---------------------------------------------------------------------
      1         29           0        0.000000    0.000000    0.381978
      2          8           0        0.000000    0.000000   -1.384671
 ---------------------------------------------------------------------
 Rotational constants (GHZ):      0.0000000     12.6967166     12.6967166
 Basis read from rwf:  (5D, 7F)
 Pseudo-potential data read from rwf file.
 There are    20 symmetry adapted cartesian basis functions of A1  symmetry.
 There are     3 symmetry adapted cartesian basis functions of A2  symmetry.
 There are     8 symmetry adapted cartesian basis functions of B1  symmetry.
 There are     8 symmetry adapted cartesian basis functions of B2  symmetry.
 There are    17 symmetry adapted basis functions of A1  symmetry.
 There are     3 symmetry adapted basis functions of A2  symmetry.
 There are     8 symmetry adapted basis functions of B1  symmetry.
 There are     8 symmetry adapted basis functions of B2  symmetry.
    36 basis functions,    80 primitive gaussians,    39 cartesian basis functions
    14 alpha electrons       13 beta electrons
       nuclear repulsion energy        45.5296511832 Hartrees.
 NAtoms=    2 NActive=    2 NUniq=    2 SFac= 1.00D+00 NAtFMM=   60 NAOKFM=F Big=F
 Integral buffers will be    262144 words long.
 Raffenetti 2 integral format.
 Two-electron integral symmetry is turned on.
 One-electron integrals computed using PRISM.
   1 Symmetry operations used in ECPInt.
 ECPInt:  NShTT=      78 NPrTT=     439 LenC2=      79 LenP2D=     415.
 LDataN:  DoStor=T MaxTD1= 4 Len=   56
 NBasis=    36 RedAO= T EigKep=  1.06D-01  NBF=    17     3     8     8
 NBsUse=    36 1.00D-06 EigRej= -1.00D+00 NBFU=    17     3     8     8
 Initial guess from the checkpoint file:  "/Users/Ceron/Scratch/Gau-2117.chk"
 B after Tr=     0.000000    0.000000    0.000000
         Rot=    1.000000    0.000000    0.000000    0.000000 Ang=   0.00 deg.
 Initial guess orbital symmetries:
 Alpha Orbitals:
       Occupied  (SG) (SG) (SG) (PI) (PI) (SG) (?A) (SG) (?A) (?B)
                 (?B) (?A) (?B) (?A)
       Virtual   (SG) (SG) (SG) (?C) (DLTA) (?C) (?C) (?C) (SG)
                 (SG) (DLTA) (?C) (PI) (PI) (?D) (?D) (?D) (PI)
                 (PI) (?D) (?D) (?D)
 Beta  Orbitals:
       Occupied  (SG) (SG) (SG) (PI) (PI) (SG) (?A) (?B) (?B) (?A)
                 (?A) (?A) (?B)
       Virtual   (SG) (SG) (SG) (SG) (DLTA) (SG) (?C) (?C) (SG)
                 (SG) (DLTA) (?C) (?B) (?B) (?B) (?B) (?B) (?B)
                 (?B) (?B) (?B) (?B) (?B)
 Initial guess <Sx>= 0.0000 <Sy>= 0.0000 <Sz>= 0.5000 <S**2>= 0.7670 S= 0.5085
 ExpMin= 2.40D-02 ExpMax= 5.48D+03 ExpMxC= 8.25D+02 IAcc=3 IRadAn=         5 AccDes= 0.00D+00
 Harris functional with IExCor=  402 and IRadAn=       5 diagonalized for initial guess.
 HarFok:  IExCor=  402 AccDes= 0.00D+00 IRadAn=         5 IDoV= 1 UseB2=F ITyADJ=14
 ICtDFT=  3500011 ScaDFX=  1.000000  1.000000  1.000000  1.000000
 FoFCou: FMM=F IPFlag=           0 FMFlag=      100000 FMFlg1=           0
         NFxFlg=           0 DoJE=T BraDBF=F KetDBF=T FulRan=T
         wScrn=  0.000000 ICntrl=     500 IOpCl=  0 I1Cent=   200000004 NGrid=           0
         NMat0=    1 NMatS0=      1 NMatT0=    0 NMatD0=    1 NMtDS0=    0 NMtDT0=    0
 Petite list used in FoFCou.
 Keep R1 and R2 ints in memory in symmetry-blocked form, NReq=1339194.
 Requested convergence on RMS density matrix=1.00D-08 within 500 cycles.
 Requested convergence on MAX density matrix=1.00D-06.
 Requested convergence on             energy=1.00D-06.
 No special actions if energy rises.
 SCF Done:  E(UB3LYP) =  -271.273806037     A.U. after   13 cycles
            NFock= 13  Conv=0.44D-08     -V/T= 2.3411
 <Sx>= 0.0000 <Sy>= 0.0000 <Sz>= 0.5000 <S**2>= 0.7701 S= 0.5100
 <L.S>= 0.000000000000E+00
 Annihilation of the first spin contaminant:
 S**2 before annihilation     0.7701,   after     0.7502
   4 Symmetry operations used in ECPInt.
 ECPInt:  NShTT=      78 NPrTT=     439 LenC2=      79 LenP2D=     415.
 LDataN:  DoStor=T MaxTD1= 5 Len=  102
 Calling FoFJK, ICntrl=      2127 FMM=F ISym2X=1 I1Cent= 0 IOpClX= 1 NMat=1 NMatS=1 NMatT=0.
 ***** Axes restored to original set *****
 -------------------------------------------------------------------
 Center     Atomic                   Forces (Hartrees/Bohr)
 Number     Number              X              Y              Z
 -------------------------------------------------------------------
      1       29           0.001306603    0.000344637    0.001880119
      2        8          -0.001306603   -0.000344637   -0.001880119
 -------------------------------------------------------------------
 Cartesian Forces:  Max     0.001880119 RMS     0.001336766

 GradGradGradGradGradGradGradGradGradGradGradGradGradGradGradGradGradGrad
 Berny optimization.
 Using GEDIIS/GDIIS optimizer.
 Internal  Forces:  Max     0.002315347 RMS     0.002315347
 Search for a local minimum.
 Step number   3 out of a maximum of   20
 All quantities printed in internal units (Hartrees-Bohrs-Radians)
 Mixed Optimization -- RFO/linear search
 Update second derivatives using D2CorX and points    2    3
 DE= -1.79D-03 DEPred=-4.72D-04 R= 3.80D+00
 TightC=F SS=  1.41D+00  RLast= 1.40D-01 DXNew= 8.4853D-01 4.2093D-01
 Trust test= 3.80D+00 RLast= 1.40D-01 DXMaxT set to 5.05D-01
 The second derivative matrix:
                          R1
           R1           0.23056
 ITU=  1  1
 Use linear search instead of GDIIS.
     Eigenvalues ---    0.23056
 RFO step:  Lambda= 0.00000000D+00 EMin= 2.30558503D-01
 Quartic linear search produced a step of -0.08712.
 Iteration  1 RMS(Cart)=  0.00864326 RMS(Int)=  0.00000000
 Iteration  2 RMS(Cart)=  0.00000000 RMS(Int)=  0.00000000
 ClnCor:  largest displacement from symmetrization is 4.48D-16 for atom     2.
 Variable       Old X    -DE/DX   Delta X   Delta X   Delta X     New X
                                 (Linear)    (Quad)   (Total)
    R1        3.33848  -0.00232  -0.01222   0.00000  -0.01222   3.32626
         Item               Value     Threshold  Converged?
 Maximum Force            0.002315     0.000450     NO 
 RMS     Force            0.002315     0.000300     NO 
 Maximum Displacement     0.004963     0.001800     NO 
 RMS     Displacement     0.008643     0.001200     NO 
 Predicted change in Energy=-1.107736D-05
 GradGradGradGradGradGradGradGradGradGradGradGradGradGradGradGradGradGrad

                          Input orientation:                          
 ---------------------------------------------------------------------
 Center     Atomic      Atomic             Coordinates (Angstroms)
 Number     Number       Type             X           Y           Z
 ---------------------------------------------------------------------
      1         29           0       -2.974065   -0.158494   -0.012653
      2          8           0       -1.980755    0.103508    1.416657
 ---------------------------------------------------------------------
 Stoichiometry    CuO(2)
 Framework group  C*V[C*(OCu)]
 Deg. of freedom     1
 Full point group                 C*V     NOp   4
 Largest Abelian subgroup         C2V     NOp   4
 Largest concise Abelian subgroup C1      NOp   1
                         Standard orientation:                         
 ---------------------------------------------------------------------
 Center     Atomic      Atomic             Coordinates (Angstroms)
 Number     Number       Type             X           Y           Z
 ---------------------------------------------------------------------
      1         29           0        0.000000    0.000000    0.380580
      2          8           0        0.000000    0.000000   -1.379601
 ---------------------------------------------------------------------
 Rotational constants (GHZ):      0.0000000     12.7902045     12.7902045
 Basis read from rwf:  (5D, 7F)
 Pseudo-potential data read from rwf file.
 There are    20 symmetry adapted cartesian basis functions of A1  symmetry.
 There are     3 symmetry adapted cartesian basis functions of A2  symmetry.
 There are     8 symmetry adapted cartesian basis functions of B1  symmetry.
 There are     8 symmetry adapted cartesian basis functions of B2  symmetry.
 There are    17 symmetry adapted basis functions of A1  symmetry.
 There are     3 symmetry adapted basis functions of A2  symmetry.
 There are     8 symmetry adapted basis functions of B1  symmetry.
 There are     8 symmetry adapted basis functions of B2  symmetry.
    36 basis functions,    80 primitive gaussians,    39 cartesian basis functions
    14 alpha electrons       13 beta electrons
       nuclear repulsion energy        45.6969646283 Hartrees.
 NAtoms=    2 NActive=    2 NUniq=    2 SFac= 1.00D+00 NAtFMM=   60 NAOKFM=F Big=F
 Integral buffers will be    262144 words long.
 Raffenetti 2 integral format.
 Two-electron integral symmetry is turned on.
 One-electron integrals computed using PRISM.
   1 Symmetry operations used in ECPInt.
 ECPInt:  NShTT=      78 NPrTT=     439 LenC2=      79 LenP2D=     416.
 LDataN:  DoStor=T MaxTD1= 4 Len=   56
 NBasis=    36 RedAO= T EigKep=  1.05D-01  NBF=    17     3     8     8
 NBsUse=    36 1.00D-06 EigRej= -1.00D+00 NBFU=    17     3     8     8
 Initial guess from the checkpoint file:  "/Users/Ceron/Scratch/Gau-2117.chk"
 B after Tr=     0.000000    0.000000    0.000000
         Rot=    1.000000    0.000000    0.000000    0.000000 Ang=   0.00 deg.
 Initial guess orbital symmetries:
 Alpha Orbitals:
       Occupied  (SG) (SG) (SG) (PI) (PI) (SG) (?A) (SG) (?A) (?B)
                 (?B) (?A) (?B) (?A)
       Virtual   (SG) (SG) (SG) (?C) (DLTA) (?C) (?C) (?C) (SG)
                 (SG) (DLTA) (?C) (PI) (PI) (?A) (?A) (PI) (PI)
                 (PI) (?A) (?A) (PI)
 Beta  Orbitals:
       Occupied  (SG) (SG) (SG) (PI) (PI) (SG) (?A) (?B) (?B) (?A)
                 (?A) (?A) (?B)
       Virtual   (SG) (SG) (SG) (SG) (DLTA) (SG) (?C) (?C) (SG)
                 (SG) (DLTA) (?C) (?B) (?B) (?B) (?B) (?B) (?B)
                 (?B) (?B) (?B) (?B) (?B)
 Initial guess <Sx>= 0.0000 <Sy>= 0.0000 <Sz>= 0.5000 <S**2>= 0.7701 S= 0.5100
 Keep R1 and R2 ints in memory in symmetry-blocked form, NReq=1339194.
 Requested convergence on RMS density matrix=1.00D-08 within 500 cycles.
 Requested convergence on MAX density matrix=1.00D-06.
 Requested convergence on             energy=1.00D-06.
 No special actions if energy rises.
 SCF Done:  E(UB3LYP) =  -271.273820292     A.U. after   11 cycles
            NFock= 11  Conv=0.66D-08     -V/T= 2.3411
 <Sx>= 0.0000 <Sy>= 0.0000 <Sz>= 0.5000 <S**2>= 0.7698 S= 0.5099
 <L.S>= 0.000000000000E+00
 Annihilation of the first spin contaminant:
 S**2 before annihilation     0.7698,   after     0.7502
   4 Symmetry operations used in ECPInt.
 ECPInt:  NShTT=      78 NPrTT=     439 LenC2=      79 LenP2D=     416.
 LDataN:  DoStor=T MaxTD1= 5 Len=  102
 Calling FoFJK, ICntrl=      2127 FMM=F ISym2X=1 I1Cent= 0 IOpClX= 1 NMat=1 NMatS=1 NMatT=0.
 ***** Axes restored to original set *****
 -------------------------------------------------------------------
 Center     Atomic                   Forces (Hartrees/Bohr)
 Number     Number              X              Y              Z
 -------------------------------------------------------------------
      1       29           0.000000935    0.000000247    0.000001345
      2        8          -0.000000935   -0.000000247   -0.000001345
 -------------------------------------------------------------------
 Cartesian Forces:  Max     0.000001345 RMS     0.000000957

 GradGradGradGradGradGradGradGradGradGradGradGradGradGradGradGradGradGrad
 Berny optimization.
 Using GEDIIS/GDIIS optimizer.
 Internal  Forces:  Max     0.000001657 RMS     0.000001657
 Search for a local minimum.
 Step number   4 out of a maximum of   20
 All quantities printed in internal units (Hartrees-Bohrs-Radians)
 Mixed Optimization -- En-DIIS/RFO-DIIS
 Update second derivatives using D2CorX and points    3    4
 DE= -1.43D-05 DEPred=-1.11D-05 R= 1.29D+00
 TightC=F SS=  1.41D+00  RLast= 1.22D-02 DXNew= 8.4853D-01 3.6670D-02
 Trust test= 1.29D+00 RLast= 1.22D-02 DXMaxT set to 5.05D-01
 The second derivative matrix:
                          R1
           R1           0.18928
 ITU=  1  1
 Use linear search instead of GDIIS.
     Eigenvalues ---    0.18928
 RFO step:  Lambda= 0.00000000D+00 EMin= 1.89283386D-01
 Quartic linear search produced a step of  0.00070.
 Iteration  1 RMS(Cart)=  0.00000607 RMS(Int)=  0.00000000
 Iteration  2 RMS(Cart)=  0.00000000 RMS(Int)=  0.00000000
 ClnCor:  largest displacement from symmetrization is 2.26D-15 for atom     2.
 Variable       Old X    -DE/DX   Delta X   Delta X   Delta X     New X
                                 (Linear)    (Quad)   (Total)
    R1        3.32626   0.00000  -0.00001   0.00000  -0.00001   3.32625
         Item               Value     Threshold  Converged?
 Maximum Force            0.000002     0.000450     YES
 RMS     Force            0.000002     0.000300     YES
 Maximum Displacement     0.000003     0.001800     YES
 RMS     Displacement     0.000006     0.001200     YES
 Predicted change in Energy=-7.249400D-12
 Optimization completed.
    -- Stationary point found.
                           ----------------------------
                           !   Optimized Parameters   !
                           ! (Angstroms and Degrees)  !
 --------------------------                            --------------------------
 ! Name  Definition              Value          Derivative Info.                !
 --------------------------------------------------------------------------------
 ! R1    R(1,2)                  1.7602         -DE/DX =    0.0                 !
 --------------------------------------------------------------------------------
 GradGradGradGradGradGradGradGradGradGradGradGradGradGradGradGradGradGrad

                          Input orientation:                          
 ---------------------------------------------------------------------
 Center     Atomic      Atomic             Coordinates (Angstroms)
 Number     Number       Type             X           Y           Z
 ---------------------------------------------------------------------
      1         29           0       -2.974065   -0.158494   -0.012653
      2          8           0       -1.980755    0.103508    1.416657
 ---------------------------------------------------------------------
 Stoichiometry    CuO(2)
 Framework group  C*V[C*(OCu)]
 Deg. of freedom     1
 Full point group                 C*V     NOp   4
 Largest Abelian subgroup         C2V     NOp   4
 Largest concise Abelian subgroup C1      NOp   1
                         Standard orientation:                         
 ---------------------------------------------------------------------
 Center     Atomic      Atomic             Coordinates (Angstroms)
 Number     Number       Type             X           Y           Z
 ---------------------------------------------------------------------
      1         29           0        0.000000    0.000000    0.380580
      2          8           0        0.000000    0.000000   -1.379601
 ---------------------------------------------------------------------
 Rotational constants (GHZ):      0.0000000     12.7902045     12.7902045

 **********************************************************************

            Population analysis using the SCF density.

 **********************************************************************

 Orbital symmetries:
 Alpha Orbitals:
       Occupied  (SG) (SG) (SG) (PI) (PI) (SG) (?A) (SG) (?A) (?B)
                 (?B) (?A) (?B) (?A)
       Virtual   (SG) (PI) (PI) (SG) (PI) (PI) (SG) (SG) (?A) (DLTA)
                 (DLTA) (?A) (?A) (SG) (?A) (SG) (?C) (?C) (?C)
                 (?C) (PI) (PI)
 Beta  Orbitals:
       Occupied  (SG) (SG) (SG) (PI) (PI) (SG) (?A) (?B) (?B) (?A)
                 (?A) (?A) (?B)
       Virtual   (?B) (SG) (?B) (?B) (SG) (?B) (?B) (SG) (SG) (DLTA)
                 (DLTA) (PI) (PI) (SG) (PI) (PI) (SG) (SG) (?C)
                 (?C) (?C) (PI) (PI)
 Unable to determine electronic state:  an orbital has unidentified symmetry.
 Alpha  occ. eigenvalues --  -19.15722  -4.34242  -2.85816  -2.84977  -2.84101
 Alpha  occ. eigenvalues --   -0.89901  -0.37470  -0.36934  -0.34284  -0.31442
 Alpha  occ. eigenvalues --   -0.31433  -0.29652  -0.26424  -0.25523
 Alpha virt. eigenvalues --   -0.11657  -0.00404  -0.00012   0.02653   0.09177
 Alpha virt. eigenvalues --    0.09508   0.14830   0.44379   0.77637   0.77765
 Alpha virt. eigenvalues --    0.77773   0.79408   0.99563   1.00145   1.03075
 Alpha virt. eigenvalues --    1.13596   1.56890   1.81277   1.81664   1.89554
 Alpha virt. eigenvalues --    1.92746   1.96806
  Beta  occ. eigenvalues --  -19.13257  -4.33541  -2.84743  -2.84081  -2.83809
  Beta  occ. eigenvalues --   -0.82420  -0.34749  -0.33507  -0.31778  -0.31132
  Beta  occ. eigenvalues --   -0.31130  -0.24840  -0.23295
  Beta virt. eigenvalues --   -0.11482  -0.11107   0.00035   0.00907   0.02831
  Beta virt. eigenvalues --    0.09353   0.09535   0.15135   0.45107   0.77592
  Beta virt. eigenvalues --    0.77597   0.79640   0.80329   1.01361   1.04392
  Beta virt. eigenvalues --    1.06733   1.15452   1.59635   1.87491   1.87938
  Beta virt. eigenvalues --    1.92099   1.98077   1.98606
          Condensed to atoms (all electrons):
               1          2
     1  Cu  18.330895   0.230753
     2  O    0.230753   8.207598
          Atomic-Atomic Spin Densities.
               1          2
     1  Cu   0.016547  -0.023815
     2  O   -0.023815   1.031083
 Mulliken charges and spin densities:
               1          2
     1  Cu   0.438352  -0.007268
     2  O   -0.438352   1.007268
 Sum of Mulliken charges =   0.00000   1.00000
 Mulliken charges and spin densities with hydrogens summed into heavy atoms:
               1          2
     1  Cu   0.438352  -0.007268
     2  O   -0.438352   1.007268
 Electronic spatial extent (au):  <R**2>=            105.1747
 Charge=              0.0000 electrons
 Dipole moment (field-independent basis, Debye):
    X=              0.0000    Y=              0.0000    Z=              4.1903  Tot=              4.1903
 Quadrupole moment (field-independent basis, Debye-Ang):
   XX=            -18.5477   YY=            -16.9484   ZZ=            -19.6137
   XY=              0.0000   XZ=              0.0000   YZ=              0.0000
 Traceless Quadrupole moment (field-independent basis, Debye-Ang):
   XX=             -0.1777   YY=              1.4215   ZZ=             -1.2438
   XY=              0.0000   XZ=              0.0000   YZ=              0.0000
 Octapole moment (field-independent basis, Debye-Ang**2):
  XXX=              0.0000  YYY=              0.0000  ZZZ=             16.7551  XYY=              0.0000
  XXY=              0.0000  XXZ=              3.9697  XZZ=              0.0000  YZZ=              0.0000
  YYZ=              2.7523  XYZ=              0.0000
 Hexadecapole moment (field-independent basis, Debye-Ang**3):
 XXXX=            -21.4693 YYYY=            -17.1251 ZZZZ=            -98.4678 XXXY=              0.0000
 XXXZ=              0.0000 YYYX=              0.0000 YYYZ=              0.0000 ZZZX=              0.0000
 ZZZY=              0.0000 XXYY=             -6.4324 XXZZ=            -20.0663 YYZZ=            -17.2622
 XXYZ=              0.0000 YYXZ=              0.0000 ZZXY=              0.0000
 N-N= 4.569696462830D+01 E-N=-7.500950116451D+02  KE= 2.022747001281D+02
 Symmetry A1   KE= 1.194745710472D+02
 Symmetry A2   KE= 1.875449993857D+01
 Symmetry B1   KE= 3.344906539806D+01
 Symmetry B2   KE= 3.059656374427D+01
                          Isotropic Fermi Contact Couplings
        Atom                 a.u.       MegaHertz       Gauss      10(-4) cm-1
     1  Cu(63)            -0.00003      -0.03854      -0.01375      -0.01286
     2  O(17)              0.13613     -82.52017     -29.44525     -27.52576
 --------------------------------------------------------
       Center         ----  Spin Dipole Couplings  ----
                      3XX-RR        3YY-RR        3ZZ-RR
 --------------------------------------------------------
     1   Atom       -0.510832      0.131240      0.379591
     2   Atom       -1.721283      3.080873     -1.359590
 --------------------------------------------------------
                        XY            XZ            YZ
 --------------------------------------------------------
     1   Atom        0.000000      0.000000      0.000000
     2   Atom        0.000000      0.000000      0.000000
 --------------------------------------------------------


 ---------------------------------------------------------------------------------
              Anisotropic Spin Dipole Couplings in Principal Axis System
 ---------------------------------------------------------------------------------

       Atom             a.u.   MegaHertz   Gauss  10(-4) cm-1        Axes

              Baa    -0.5108   -72.324   -25.807   -24.125  1.0000  0.0000  0.0000
     1 Cu(63) Bbb     0.1312    18.581     6.630     6.198  0.0000  1.0000  0.0000
              Bcc     0.3796    53.743    19.177    17.927  0.0000  0.0000  1.0000
 
              Baa    -1.7213   124.551    44.443    41.546  1.0000  0.0000  0.0000
     2 O(17)  Bbb    -1.3596    98.379    35.104    32.816  0.0000  0.0000  1.0000
              Bcc     3.0809  -222.930   -79.547   -74.361  0.0000  1.0000  0.0000
 

 ---------------------------------------------------------------------------------


 Test job not archived.
 1\1\GINC-MARIAS-IMAC\FOpt\UB3LYP\Gen\Cu1O1(2)\CERON\19-Dec-2013\0\\# b
 3lyp/gen opt pseudo=read scf=maxcyc=500 test\\CuO\\0,2\Cu,-2.974065012
 2,-0.1584937457,-0.0126530766\O,-1.9807549978,0.1035075757,1.416657316
 6\\Version=IA32M-G09RevD.01\HF=-271.2738203\S2=0.769798\S2-1=0.\S2A=0.
 750153\RMSD=6.602e-09\RMSF=9.566e-07\Dipole=-0.9303268,-0.2453885,-1.3
 386816\Quadrupole=-0.1471207,0.7755345,-0.6284138,-0.535272,-0.4422824
 ,0.0603236\PG=C*V [C*(O1Cu1)]\\@


 IT IS A PROFOUNDLY ERRONEOUS TRUISM ... THAT WE SHOULD CULTIVATE
 THE HABIT OF THINKING OF WHAT WE ARE DOING.
 THE PRECISE OPPOSITE IS THE CASE.
 CIVILIZATION ADVANCES BY EXTENDING THE NUMBER OF IMPORTANT OPERATIONS
 WHICH WE CAN PERFORM WITHOUT THINKING ABOUT THEM.

                                    -- ALFRED NORTH WHITEHEAD
 Job cpu time:       0 days  0 hours  0 minutes  6.9 seconds.
 File lengths (MBytes):  RWF=      5 Int=      0 D2E=      0 Chk=      1 Scr=      1
 Normal termination of Gaussian 09 at Thu Dec 19 16:07:20 2013.
