=============================Gauss09 sAWK=============================
#code's author: Giuliano Tognarelli Buono-core
#None
<<<<<<< HEAD
#Last run on Friday 06/06/2014 at 13:23 (dd/mm/yyyy)
=======
#Last run on Saturday 31/05/2014 at 14:36 (dd/mm/yyyy)

=========================ERROR========================
loop: 0
line: 0
itineration: 0
file: /Users/giuliano/Desktop/cytbFeII_M5_susti_BPW91.log
error: <class 'UnicodeDecodeError'>

('ascii', b' Entering Gaussian System, Link 0=g09\n Input=cytbFeII_M1_susti_BPW91_recomputing.com\n Output=cytbFeII_M1_susti_BPW91_recomputing.log\n Initial command:\n /Applications/g09/l1.exe "/Users/Ceron/Scratch/Gau-56741.inp" -scrdir="/Users/Ceron/Scratch/"\n Entering Link 1 = /Applications/g09/l1.exe PID=     56742.\n  \n Copyright (c) 1988,1990,1992,1993,1995,1998,2003,2009,2013,\n            Gaussian, Inc.  All Rights Reserved.\n  \n This is part of the Gaussian(R) 09 program.  It is based on\n the Gaussian(R) 03 system (copyright 2003, Gaussian, Inc.),\n the Gaussian(R) 98 system (copyright 1998, Gaussian, Inc.),\n the Gaussian(R) 94 system (copyright 1995, Gaussian, Inc.),\n the Gaussian 92(TM) system (copyright 1992, Gaussian, Inc.),\n the Gaussian 90(TM) system (copyright 1990, Gaussian, Inc.),\n the Gaussian 88(TM) system (copyright 1988, Gaussian, Inc.),\n the Gaussian 86(TM) system (copyright 1986, Carnegie Mellon\n University), and the Gaussian 82(TM) system (copyright 1983,\n Carnegie Mellon University). Gaussian is a federally registered\n trademark of Gaussian, Inc.\n  \n This software contains proprietary and confidential information,\n including trade secrets, belonging to Gaussian, Inc.\n  \n This software is provided under written license and may be\n used, copied, transmitted, or stored only in accord with that\n written license.\n  \n The following legend is applicable only to US Government\n contracts under FAR:\n  \n                    RESTRICTED RIGHTS LEGEND\n  \n Use, reproduction and disclosure by the US Government is\n subject to restrictions as set forth in subparagraphs (a)\n and (c) of the Commercial Computer Software - Restricted\n Rights clause in FAR 52.227-19.\n  \n Gaussian, Inc.\n 340 Quinnipiac St., Bldg. 40, Wallingford CT 06492\n  \n  \n ---------------------------------------------------------------\n Warning -- This program may not be used in any manner that\n competes with the business of Gaussian, Inc. or will provide\n assistance to any competitor of Gaussian, Inc.  The licensee\n of this program is prohibited from giving any competitor of\n Gaussian, Inc. access to this program.  By using this program,\n the user acknowledges that Gaussian, Inc. is engaged in the\n business of creating and licensing software in the field of\n computational chemistry and represents and warrants to the\n licensee that it is not a competitor of Gaussian, Inc. and that\n it will not use this program in any manner prohibited above.\n ---------------------------------------------------------------\n  \n\n Cite this work as:\n Gaussian 09, Revision D.01,\n M. J. Frisch, G. W. Trucks, H. B. Schlegel, G. E. Scuseria, \n M. A. Robb, J. R. Cheeseman, G. Scalmani, V. Barone, B. Mennucci, \n G. A. Petersson, H. Nakatsuji, M. Caricato, X. Li, H. P. Hratchian, \n A. F. Izmaylov, J. Bloino, G. Zheng, J. L. Sonnenberg, M. Hada, \n M. Ehara, K. Toyota, R. Fukuda, J. Hasegawa, M. Ishida, T. Nakajima, \n Y. Honda, O. Kitao, H. Nakai, T. Vreven, J. A. Montgomery, Jr., \n J. E. Peralta, F. Ogliaro, M. Bearpark, J. J. Heyd, E. Brothers, \n K. N. Kudin, V. N. Staroverov, T. Keith, R. Kobayashi, J. Normand, \n K. Raghavachari, A. Rendell, J. C. Burant, S. S. Iyengar, J. Tomasi, \n M. Cossi, N. Rega, J. M. Millam, M. Klene, J. E. Knox, J. B. Cross, \n V. Bakken, C. Adamo, J. Jaramillo, R. Gomperts, R. E. Stratmann, \n O. Yazyev, A. J. Austin, R. Cammi, C. Pomelli, J. W. Ochterski, \n R. L. Martin, K. Morokuma, V. G. Zakrzewski, G. A. Voth, \n P. Salvador, J. J. Dannenberg, S. Dapprich, A. D. Daniels, \n O. Farkas, J. B. Foresman, J. V. Ortiz, J. Cioslowski, \n and D. J. Fox, Gaussian, Inc., Wallingford CT, 2013.\n \n ******************************************\n Gaussian 09:  IA32M-G09RevD.01 24-Apr-2013\n                 8-May-2014 \n ******************************************\n %mem=4GB\n --------------------------------------------------------------\n # opt lanl2dz nosymm guess=huckel bpw91 scf=(xqc,maxcycle=899)\n --------------------------------------------------------------\n 1/14=-1,18=20,19=15,26=3,38=1/1,3;\n 2/9=110,12=2,15=1,17=6,18=5,40=1/2;\n 3/5=6,6=3,11=2,16=1,25=1,30=1,71=1,74=408/1,2,3;\n 4/11=4/1;\n 5/5=2,7=899,8=3,13=1,38=5/2,8;\n 6/7=2,8=2,9=2,10=2,28=1/1;\n 7/30=1/1,2,3,16;\n 1/14=-1,18=20,19=15,26=3/3(2);\n 2/9=110,15=1/2;\n 99//99;\n 2/9=110,15=1/2;\n 3/5=6,6=3,11=2,16=1,25=1,30=1,71=1,74=408/1,2,3;\n 4/5=5,11=4,16=3,69=1/1;\n 5/5=2,7=899,8=3,13=1,38=5/2,8;\n 7/30=1/1,2,3,16;\n 1/14=-1,18=20,19=15,26=3/3(-5);\n 2/9=110,15=1/2;\n 6/7=2,8=2,9=2,10=2,19=2,28=1/1;\n 99/9=1/99;\n ----------------------------------------------------\n Optimizacion con mol\xe9culas de H2O, pero no paralelas\n ----------------------------------------------------\n Symbolic Z-matrix:\n Charge = -2 Multiplicity = 5\n C                    0    -3.94281  -1.38526   0.07554 \n C                    -1   -4.6058   -2.70213   0.16266 \n C                    0    -4.60141  -0.1666   -0.01196 \n C                    0    -2.3056   -2.91548   0.19854 \n C                    -1   -3.53698  -3.64358   0.24654 \n C                    -1   -4.68378   2.32323  -0.15915 \n C                    0    -2.41472   2.70705  -0.15082 \n C                    -1   -3.72364   3.37735  -0.19988 \n C                    0    -3.96411   1.08686  -0.08312 \n N                    0    -2.55113   1.2943   -0.07823 \n N                    0    -2.51706  -1.50908   0.09586 \n C                    0     2.37055  -0.03008  -0.01003 \n C                    0     1.69579   1.19772  -0.01923 \n C                    -1    2.35999   2.51451  -0.03818 \n C                    0     0.06482   2.71693  -0.11919 \n C                    0    -1.17816   3.3534   -0.16981 \n C                    -1    1.32594   3.45406  -0.12557 \n N                    0     0.27406   1.31917  -0.05137 \n C                    0    -1.04103  -3.53146   0.22568 \n C                    0     1.73866  -1.27908   0.01156 \n C                    -1    2.45488  -2.57588   0.02656 \n C                    -1    1.46364  -3.55344   0.13462 \n C                    0     0.17235  -2.86185   0.14702 \n N                    0     0.32712  -1.45055   0.06357 \n H                    -1   -1.17568   4.4403   -0.22049 \n H                    -1    3.46316  -0.00975  -0.01763 \n H                    -1   -1.01509  -4.6228    0.29349 \n H                    -1   -5.69034  -0.17132  -0.01745 \n Fe                   -1   -1.1216   -0.09509   0.00828 \n C                    -1   -6.19323   2.42476  -0.18011 \n H                    -1   -6.6294    1.89942  -1.05566 \n H                    -1   -6.64839   1.96276   0.72078 \n H                    -1   -6.53124   3.47648  -0.22065 \n C                    -1   -3.62538  -5.15116   0.35322 \n H                    -1   -3.12991  -5.6526   -0.50399 \n H                    -1   -3.12479  -5.52625   1.2697 \n H                    -1   -4.67451  -5.49777   0.38005 \n C                    -1    1.53195  -5.06489   0.23992 \n H                    -1    0.99485  -5.41856   1.14489 \n H                    -1    1.04341  -5.55681  -0.62816 \n H                    -1    2.56408  -5.4299    0.29449 \n C                    -1    1.3447    4.9672   -0.22543 \n H                    -1    0.70134   5.31083  -1.06121 \n H                    -1    0.94797   5.44496   0.69577 \n H                    -1    2.35619   5.35585  -0.39492 \n C                    -1   -4.08379   4.77959  -0.26811 \n C                    -1   -3.36108   5.96517  -0.29772 \n H                    -1   -5.17839   4.93082  -0.30047 \n H                    -1   -3.88951   6.92731  -0.34995 \n H                    -1   -2.27171   6.01375  -0.26655 \n C                    -1   -6.00254  -3.07378   0.15721 \n C                    -1   -7.19954  -2.36361   0.0595 \n H                    -1   -6.14798  -4.16642   0.24531 \n H                    -1   -8.15685  -2.90327   0.07431 \n H                    -1   -7.2573   -1.27783  -0.0401 \n C                    -1    3.98089  -2.68886  -0.07786 \n C                    -1    4.59009  -4.11183  -0.19667 \n H                    -1    4.44504  -2.18165   0.79302 \n H                    -1    4.33762  -2.10759  -0.94991 \n H                    -1    4.42753  -4.69109   0.73101 \n H                    -1    4.07385  -4.66424  -1.00757 \n C                    -1    6.1314', 4547, 4548, 'ordinal not in range(128)')

'ascii' codec can't decode byte 0xe9 in position 4547: ordinal not in range(128)
>>>>>>> FETCH_HEAD
